Formula,temperature(K),seebeck_coefficient(μV/K),electrical_conductivity(S/m),thermal_conductivity(W/mK),power_factor(W/mK2),ZT,reference
Li1.00Ge3.50Sb2.00Te7.00,373,201.8,28890,0.933,0.001176494,0.470345565,https://doi.org/10.1021/acs.chemmater.8b03609
Nd2.78Te4.00,373,-58,94460,1.3869,0.000317763,0.085460929,https://doi.org/10.1021/acs.chemmater.9b00964
Nd2.84Te4.00,373,-42.2,128600,1.9338,0.000229016,0.044173636,https://doi.org/10.1021/acs.chemmater.9b00964
Nd2.86Te4.00,373,-42,151400,2.066,0.00026,0.048217309,https://doi.org/10.1021/acs.chemmater.9b00964
Nd2.92Te4.00,373,-31.13,213158,2.6985,0.000206566,0.028552641,https://doi.org/10.1021/acs.chemmater.9b00964
Nd2.90Te4.00,373,-35.7,180000,2.4485,0.000229408,0.034947625,https://doi.org/10.1021/acs.chemmater.9b00964
Nd3.00Te4.00,373,-29,324000,3.19,0.000272484,0.031860982,https://doi.org/10.1021/acs.chemmater.9b00964
Cu2.00Zn1.00Sn0.93Ag0.07Se4.00,373,52.96,71429,3.314,0.000200341,0.022548977,https://doi.org/10.1021/acs.inorgchem.1c00079
Cu2.00Zn1.00Sn0.95Ag0.05Se4.00,373,38.87,238462,3.5263,0.000360287,0.038109903,https://doi.org/10.1021/acs.inorgchem.1c00079
Cu2.00Zn1.00Sn0.98Ag0.02Se4.00,373,78.41,38847,3.8363,0.000238836,0.023221842,https://doi.org/10.1021/acs.inorgchem.1c00079
Cu2.00Zn1.00Sn1.00Se4.00,373,116.62,19531,3.9883,0.000265626,0.024842287,https://doi.org/10.1021/acs.inorgchem.1c00079
As2.00Te1.50Se1.50,373,587.76,13.89,0.3412,4.80E-06,0.005245684,https://doi.org/10.1021/acs.inorgchem.6b02930
As2.00Te2.30Se0.70,373,347.96,160.46,0.4873,1.94E-05,0.014870921,https://doi.org/10.1021/acs.inorgchem.6b02930
As2.00Te2.60Se0.40,373,228,1418,0.537,7.37E-05,0.049,https://doi.org/10.1021/acs.inorgchem.6b02930
As2.00Te2.80Se0.20,373,206.93,1279.8,0.605,5.48E-05,0.033786443,https://doi.org/10.1021/acs.inorgchem.6b02930
As2.00Te2.90Se0.10,373,159.41,1063.62,0.6339,2.70E-05,0.0226,https://doi.org/10.1021/acs.inorgchem.6b02930
As2.00Te2.00Se1.00,373,248.48,20.54,0.449,1.27E-06,0.001053527,https://doi.org/10.1021/acs.inorgchem.6b02930
As2.00Te3.00,373,47.52,585.95,0.7251,1.32E-06,0.000680651,https://doi.org/10.1021/acs.inorgchem.6b02930
Ca0.99Yb4.01Al2.00Sb5.84Ge0.16,373,218.87,1075,1.096,5.15E-05,0.017525855,https://doi.org/10.1021/acs.inorgchem.9b00181
Ca1.11Yb3.89Al2.00Sb5.77Ge0.23,373,39,19346,2.274,2.94E-05,0.004826572,https://doi.org/10.1021/acs.inorgchem.9b00181
Cu5.00Sn1.00Sb1.00Se6.30,373,41.95,175862,2.6724,0.000309482,0.043195978,https://doi.org/10.1021/acsaem.1c01155
Cu5.00Sn1.00Sb1.00Se6.58,373,35.52,296552,3.9573,0.000374151,0.035266035,https://doi.org/10.1021/acsaem.1c01155
Cu5.00Sn1.00Sb1.00Se6.79,373,37.59,385345,4.517,0.000544496,0.044962776,https://doi.org/10.1021/acsaem.1c01155
Cu5.00Sn1.00Sb1.00Se7.00,373,34.25,457391,5.034,0.000536548,0.039756156,https://doi.org/10.1021/acsaem.1c01155
Zn2.00Cu3.00In3.00Te8.00,373,142.3,19207,2.81,0.000388928,0.051626401,https://doi.org/10.1021/acsaem.9b02004
Al0.01Sb0.10Ge0.90Te1.00,373,159.3,55261,1.515,0.00140233,0.349,https://doi.org/10.1021/acsami.1c12282
Al0.01Sb0.10Ge0.89Te1.00,373,167.2,53333,1.491,0.001490969,0.372992198,https://doi.org/10.1021/acsami.1c12282
Al0.01Ge0.99Te1.00,373,43.93,539286,6.2727,0.001040738,0.061886492,https://doi.org/10.1021/acsami.1c12282
Al0.01Sb0.10Ge0.89Te1.00,373,181.99,48755,1.4244,0.001614783,0.3654,https://doi.org/10.1021/acsami.1c12282
Al0.02Ge0.98Te1.00,373,47.68,503571,6.1414,0.001144809,0.069530388,https://doi.org/10.1021/acsami.1c12282
Al0.03Ge0.97Te1.00,373,47.68,483929,5.626,0.001100156,0.072939578,https://doi.org/10.1021/acsami.1c12282
Ge1.00Te1.00,373,42.86,591071,6.101,0.001085785,0.066382223,https://doi.org/10.1021/acsami.1c12282
Sb0.05Ge0.95Te1.00,373,81.48,269725,3.491,0.001790702,0.191329627,https://doi.org/10.1021/acsami.1c12282
Sb0.15Ge0.85Te1.00,373,185.93,20642,1.255,0.000713593,0.212087864,https://doi.org/10.1021/acsami.1c12282
Sb0.10Ge0.90Te1.00,373,171.2,55050,1.581,0.001613485,0.384,https://doi.org/10.1021/acsami.1c12282
Bi0.42Sb1.58Te3.00,373,240,38600,0.92,0.00222336,0.901427478,https://doi.org/10.1021/acsami.1c13372
Sn0.93Pb0.06Zn0.01Se1.00,373,498.21,1137,0.708,0.000282218,0.162,https://doi.org/10.1021/acsami.1c20549
Sn0.96Pb0.03Zn0.01Se1.00,373,476,2140,0.8506,0.000484873,0.212623436,https://doi.org/10.1021/acsami.1c20549
Sn0.97Pb0.02Zn0.01Se1.00,373,459.64,2795,1.0747,0.000590497,0.204945802,https://doi.org/10.1021/acsami.1c20549
Sn0.98Pb0.01Zn0.01Se1.00,373,460.71,3000,1.0812,0.000636761,0.219674339,https://doi.org/10.1021/acsami.1c20549
Sn0.90Pb0.09Zn0.01Se1.00,373,542.2,280,0.9771,8.23E-05,0.031422944,https://doi.org/10.1021/acsami.1c20549
Sn1.00Se1.00,373,523.4,900,1.774,0.000246553,0.05184002,https://doi.org/10.1021/acsami.1c20549
Bi2.00Si2.00Te6.00,373,119.15,12037,0.849,0.000170886,0.075077101,https://doi.org/10.1021/acsami.1c23351
Sb2.00Si2.00Te6.00,373,139.8,30275,0.8608,0.000591696,0.256392353,https://doi.org/10.1021/acsami.1c23351
Cu2.00Zn0.20Fe0.80Sn1.00Se4.00,373,232.95,2645,1.7402,0.000143533,0.030765273,https://doi.org/10.1021/ic402455x
Cu2.00Zn0.40Fe0.60Sn1.00Se4.00,373,215.9,3226,1.9213,0.000150373,0.029193307,https://doi.org/10.1021/ic402455x
Cu2.00Zn0.60Fe0.40Sn1.00Se4.00,373,263.87,86.92,2.488,6.05E-06,0.000907315,https://doi.org/10.1021/ic402455x
Cu2.00Zn0.80Fe0.20Sn1.00Se4.00,373,281.03,26.67,2.5,2.11E-06,0.000314266,https://doi.org/10.1021/ic402455x
Ca3.00Co2.00O6.00,373,227,17,7.43,8.76E-07,4.40E-05,https://doi.org/10.1063/1.1622115
Tl2.00Ge1.00Te3.00,373,212,3350,0.297,0.0001556,0.1916,https://doi.org/10.1063/1.2181427
Tl4.00Pb1.00Te3.00,373,46.53,53500,1.025,0.00011,0.042150706,https://doi.org/10.1063/1.2181427
Tl4.00Sn1.00Te3.00,373,124.3,23700,0.464,0.0003635,0.286,https://doi.org/10.1063/1.2181427
Sn1.00Se1.00,373,208.23,879,1.4066,3.81E-05,0.0101068,https://doi.org/10.1021/acsami.1c10081
Sn1.00Se0.90S0.10,373,225,1515,1.169,6.89E-05,0.0219,https://doi.org/10.1021/acsami.1c10081
Sn1.00Se0.80S0.20,373,234.49,1068,1.2852,5.87E-05,0.01704347,https://doi.org/10.1021/acsami.1c10081
Sn1.00Se1.00,373,257.35,32.26,0.7632,2.14E-06,0.001044199,https://doi.org/10.1021/acsami.1c09208
Sn1.00Se1.00,373,230.88,16.13,0.7647,8.60E-07,0.000419396,https://doi.org/10.1021/acsami.1c09208
Mg2.00Zn0.96Sb2.00,373,289.47,3411,0.6292,0.000285818,0.169437276,https://doi.org/10.1021/acsami.0c09391
Mg2.00Zn0.98Sb2.00,373,296.71,4570,0.6735,0.000402328,0.222818784,https://doi.org/10.1021/acsami.0c09391
Mg2.00Zn1.00Sb2.00,373,346.2,729,0.685,8.74E-05,0.047577314,https://doi.org/10.1021/acsami.0c09391
Mg2.00Zn1.02Sb2.00,373,269.08,894,0.6778,6.47E-05,0.035621124,https://doi.org/10.1021/acsami.0c09391
Mg2.00Zn1.04Sb2.00,373,317.76,596,0.6659,6.02E-05,0.033708896,https://doi.org/10.1021/acsami.0c09391
Mg1.98Li0.02Zn0.98Sb2.00,373,92.06,83598,1.1289,0.000708497,0.234094488,https://doi.org/10.1021/acsami.0c09391
Mg1.98K0.02Zn0.98Sb2.00,373,237.04,8677,0.667,0.000487543,0.272643955,https://doi.org/10.1021/acsami.0c09391
Mg1.98Ag0.02Zn0.98Sb2.00,373,113.7,50794,1,0.000656649,0.244930109,https://doi.org/10.1021/acsami.0c09391
Mg1.96Li0.04Zn0.98Sb2.00,373,62.7,127831,1.338,0.000502541,0.1379,https://doi.org/10.1021/acsami.0c09391
Cu1.70Se1.00,374,20.3,763514,5.9625,0.000314636,0.019735689,https://doi.org/10.1021/acsami.1c18818
Cu1.80Se1.00,374,22.28,691892,5.9503,0.000343454,0.021587454,https://doi.org/10.1021/acsami.1c18818
Cu1.95In0.05Se1.00,374,218.91,12162,1.2,0.0006302,0.2,https://doi.org/10.1021/acsami.1c18818
Cu1.97In0.03Se1.00,374,120.3,71141,0.613,0.001029559,0.62814853,https://doi.org/10.1021/acsami.1c18818
Cu1.99In0.01Se1.00,374,117.33,74324,0.585,0.001023169,0.666,https://doi.org/10.1021/acsami.1c18818
Cu2.10Se1.00,374,50,246000,1.6125,0.000615,0.14264186,https://doi.org/10.1021/acsami.1c18818
Cu2.20Se1.00,374,105.9,85140,0.672,0.000954829,0.531407764,https://doi.org/10.1021/acsami.1c18818
Cu2.00Se1.00,374,42.57,320270,2,0.000580395,0.108533839,https://doi.org/10.1021/acsami.1c18818
Ag2.00Se1.00,374,-102.99,286667,1.7546,0.00304066,0.634,https://doi.org/10.1021/acsami.1c08410
Cu2.00Se1.00,375,114.57,64785,0.54,0.000850386,0.590546088,10.1002/adma.201302660
Cu2.00Se0.92I0.08,375,175,10900,0.385,0.0003338,0.325,10.1002/adma.201302660
Cu2.00Se0.96I0.04,375,133.6,27140,0.245,0.000484421,0.741460369,10.1002/adma.201302660
Ag0.96Nb0.04Bi1.00Se2.00,375,-98,24615,0.7148,0.000236402,0.124021996,10.1021/ja312474n
Ag0.98Nb0.02Bi1.00Se2.00,375,-138,16000,0.69,0.000304704,0.1656,10.1021/ja312474n
Ag1.00Bi1.00Se2.00,375,-166,8310,0.67,0.00022899,0.128166246,10.1021/ja312474n
Cu1.00Ga0.97Mn0.03Te2.00,375,183.7,24290,5.234,0.000819683,0.058727752,10.1039/c6ta11120c
Cu1.00Ga0.99Mn0.01Te2.00,375,339.7,5702,4.44,0.000657989,0.055573353,10.1039/c6ta11120c
Cu1.00Ga1.00Te2.00,375,365,2330,5.75,0.000310414,0.027,10.1039/c6ta11120c
Sr15.00Ga29.50Ge55.60,375,-167,35082,1.022,0.000978402,0.363,10.1063/1.2194187
Ag2.00Se0.50Te0.50,375,-104,64000,0.67,0.000692224,0.387438806,https://doi.org/10.1021/acs.inorgchem.1c01563
Ag2.00Se0.60Te0.40,375,-115,78990,0.752,0.001044643,0.520932222,https://doi.org/10.1021/acs.inorgchem.1c01563
Ag2.00Se0.80Te0.20,375,-127.6,101835,0.837,0.001658053,0.7428553,https://doi.org/10.1021/acs.inorgchem.1c01563
Ag2.00Se0.90Te0.10,375,-133,108624,0.92,0.00192145,0.783199702,https://doi.org/10.1021/acs.inorgchem.1c01563
Ag0.01Cu1.97S0.50Se0.50,375,136,7059,0.622,0.000130563,0.078715794,https://doi.org/10.1021/acsaem.1c03064
Ag0.02Cu1.96S0.50Se0.50,375,151,5809,0.6326,0.000142,0.078515853,https://doi.org/10.1021/acsaem.1c03064
Ag0.03Cu1.95S0.50Se0.50,375,155.16,4706,0.6,0.000113295,0.070809493,https://doi.org/10.1021/acsaem.1c03064
Cu1.95S0.50Se0.50,375,71.92,31634,1.0087,0.000163626,0.060830686,https://doi.org/10.1021/acsaem.1c03064
Cu1.98S0.50Se0.50,375,108.38,15000,0.6696,0.000176193,0.0986746,https://doi.org/10.1021/acsaem.1c03064
Cu1.99S0.50Se0.50,375,167.68,3861,0.5174,0.000108558,0.078680512,https://doi.org/10.1021/acsaem.1c03064
Cu2.00S0.50Se0.50,375,215.7,1490,0.5435,6.93E-05,0.047831971,https://doi.org/10.1021/acsaem.1c03064
Nb1.00Co1.00Sn1.00,375,-195.29,58698,11.762,0.002238635,0.071372911,https://doi.org/10.1021/acsami.1c08127
Ge1.00Te1.00,375,36.33,575000,6.2813,0.000758925,0.045308572,https://doi.org/10.1021/acsami.1c11599
Ge0.89In0.05Pb0.06Te1.00,375,152.94,58081,1.2467,0.001358552,0.408644413,https://doi.org/10.1021/acsami.1c11599
Ge0.87In0.05Pb0.08Te1.00,375,183.19,48117,1.1133,0.001614738,0.543902589,https://doi.org/10.1021/acsami.1c11599
Ge0.85In0.05Pb0.10Te1.00,375,219.5,29040,0.954,0.001399154,0.549982099,https://doi.org/10.1021/acsami.1c11599
Ge0.83In0.05Pb0.12Te1.00,375,238.66,17319,0.9467,0.000986466,0.390751789,https://doi.org/10.1021/acsami.1c11599
Ag8.00Sn0.40Ga0.60Se6.00,376,-530,132,0.225,3.71E-05,0.067,https://doi.org/10.1021/acsami.1c17548
Ag2.00Se0.98,376,-92.5,293100,1.626,0.002507837,0.579917998,https://doi.org/10.1021/acsami.1c18483
Ag2.00Se1.00,376,-124.26,167213,1.0902,0.00258186,0.890459978,https://doi.org/10.1021/acsami.1c18483
Zr1.00Ni1.00Sn1.00,376,-101.04,36966,4.22,0.000377389,0.033625173,https://doi.org/10.1021/acsami.1c05639
Yb1.00Si2.00,377,-46.2,700000,9.15,0.001494108,0.061560515,10.1002/pssr.201700372
Mg2.00Cu3.00In3.00Te8.00,377,326,1620,2.75,0.000172167,0.023602547,https://doi.org/10.1021/acsaem.9b02004
Hf0.50Ti0.50Co1.00Sb0.80Sn0.20,377,194.4,42150,2.512,0.0016,0.239062697,10.1039/c2ee21554c
Hf0.70Ti0.30Co1.00Sb0.80Sn0.20,377,175,52700,2.8,0.001613938,0.22,10.1039/c2ee21554c
Hf0.80Ti0.20Co1.00Sb0.80Sn0.20,377,175,58200,2.8,0.001782375,0.239984062,10.1039/c2ee21554c
Hf0.90Ti0.10Co1.00Sb0.80Sn0.20,377,158.28,74752,3.39,0.001865,0.207,10.1039/c2ee21554c
Cd2.00Cu3.00In3.00Te8.00,377,159.46,17034,1.685,0.000433132,0.096908441,https://doi.org/10.1021/acsaem.9b02004
Ag2.00Se1.00,377,-90,267541,1.3333,0.002167082,0.612757783,https://doi.org/10.1021/acsami.1c18483
Ag2.00Se1.01,377,-134.47,141200,1.14,0.002553204,0.84,https://doi.org/10.1021/acsami.1c18483
Ag2.00Se1.02,377,-132.98,148033,1.182,0.002617768,0.834939623,https://doi.org/10.1021/acsami.1c18483
Ag2.00Se1.03,377,-135.32,136800,1.174,0.002505014,0.804420869,https://doi.org/10.1021/acsami.1c18483
Ag2.00Se1.04,377,-137.02,131311,1.114,0.002465296,0.834305669,https://doi.org/10.1021/acsami.1c18483
Ag2.00Se1.06,377,-135.96,134300,1.0954,0.002482552,0.854411211,https://doi.org/10.1021/acsami.1c18483
Ag1.00Bi0.85Nb0.15Sb0.30Se2.00,378,-163,8913,0.690694366,0.000236809,0.1296,https://doi.org/10.1021/acs.inorgchem.9b01038
Ag1.00Bi0.85Pb0.15Sb0.30Se2.00,378,397.3,681,0.531146846,0.000107494,0.0765,https://doi.org/10.1021/acs.inorgchem.9b01038
Ag1.00Bi0.85Pb0.15Sb0.10Se2.00,378,436.11,289.43,0.581225163,5.50E-05,0.0358,https://doi.org/10.1021/acs.inorgchem.9b01038
Ag1.00Bi0.80Nb0.20Sb0.30Se2.00,378,-184,10000,0.886258172,0.00033856,0.1444,https://doi.org/10.1021/acs.inorgchem.9b01038
Ag1.00Bi0.80Nb0.20Sb0.10Se2.00,378,-77,46416,0.713972377,0.0002752,0.1457,https://doi.org/10.1021/acs.inorgchem.9b01038
Ag1.00Bi0.80Pb0.20Sb0.10Se2.00,378,152.78,538,0.551961309,1.26E-05,0.0086,https://doi.org/10.1021/acs.inorgchem.9b01038
Ag1.00Bi0.90Nb0.10Sb0.30Se2.00,378,-179,6607,0.62321392,0.000211695,0.1284,https://doi.org/10.1021/acs.inorgchem.9b01038
Ag1.00Bi0.90Pb0.10Sb0.30Se2.00,378,402.7,813,0.672554367,0.000131842,0.0741,https://doi.org/10.1021/acs.inorgchem.9b01038
Ag1.00Bi0.90Pb0.10Sb0.10Se2.00,378,538.89,272.83,0.527273368,7.92E-05,0.0568,https://doi.org/10.1021/acs.inorgchem.9b01038
Ag1.00Bi0.70Sb0.30Se2.00,378,-361.11,400,0.469441556,5.22E-05,0.042,https://doi.org/10.1021/acs.inorgchem.9b01038
Ag1.00Bi0.90Sb0.10Se2.00,378,-130.56,16312,0.481025228,0.000278053,0.2185,https://doi.org/10.1021/acs.inorgchem.9b01038
In0.01Pb0.99Te0.99I0.01,378,-153.2,81875,1.882,0.001921626,0.375,https://doi.org/10.1063/1.3694742
In0.01Pb0.99Te1.00I0.00,378,-191.02,49400,1.828,0.001805,0.38,https://doi.org/10.1063/1.3694742
In0.01Pb0.99Te1.00I0.00,378,-222,33594,1.644,0.001655647,0.382,https://doi.org/10.1063/1.3694742
In0.01Pb0.99Te1.00I0.00,378,-254.72,23016,1.7342,0.001493331,0.322,https://doi.org/10.1063/1.3694742
In0.01Pb0.98Te0.99I0.01,378,-201.6,30470,1.735,0.001256,0.269802414,https://doi.org/10.1063/1.3694742
In0.01Pb0.98Te1.00I0.00,378,-209,19730,1.68,0.000861826,0.192,https://doi.org/10.1063/1.3694742
In0.01Pb0.99Te0.99I0.01,378,-179.2,57900,1.774,0.001859322,0.396180193,https://doi.org/10.1063/1.3694742
In0.01Pb0.99Te1.00I0.00,378,-202,40625,1.644,0.001669,0.381141378,https://doi.org/10.1063/1.3694742
Ba8.01Ga15.83Zn0.02Sn30.15,380,449.3,4709,0.787,0.000950608,0.458997576,https://doi.org/10.1021/acs.chemmater.5b00025
Ba8.01Ga15.88Zn0.01Sn30.11,380,407.75,6797,0.848836657,0.00113007,0.5059,https://doi.org/10.1021/acs.chemmater.5b00025
Ba8.01Ga15.89Zn0.01Sn30.10,380,374.3,12700,0.896,0.001779276,0.754603755,https://doi.org/10.1021/acs.chemmater.5b00025
Ba8.00Ga15.88Zn0.01Sn30.12,380,360,14699,0.912282737,0.00190499,0.7935,https://doi.org/10.1021/acs.chemmater.5b00025
Tl8.95Bi1.05Te6.00,382,-208,320,0.344,1.38E-05,0.015373812,https://doi.org/10.1021/cm402593f
Tl8.99Bi1.01Te6.00,382,271,6500,0.34,0.000477366,0.536335303,https://doi.org/10.1021/cm402593f
Ag1.00Cu1.00Se1.00,382,-26.75,55856,1.9464,4.00E-05,0.0078442,https://doi.org/10.1021/ic502102e
Nb1.00Co0.96Ni0.04Sn1.00,382,-119.41,112426,9.6548,0.001603054,0.063426133,https://doi.org/10.1021/acsami.1c08127
Nb1.00Co0.94Ni0.06Sn1.00,382,-56.18,188941,9.5357,0.000596334,0.023889137,https://doi.org/10.1021/acsami.1c08127
Nb1.00Co0.92Ni0.08Sn1.00,382,-75,165476,9.4524,0.000930803,0.037616537,https://doi.org/10.1021/acsami.1c08127
Nb1.00Co0.90Ni0.10Sn1.00,382,-132.94,103529,9.2619,0.001829673,0.075463448,https://doi.org/10.1021/acsami.1c08127
Cu1.00Ag1.00Te0.50Se0.50,383,129.79,8910,0.391,0.000150093,0.147021952,https://doi.org/10.1021/acsami.1c20333
Cu1.00Ag1.00Te0.60Se0.40,383,220.92,8060,0.3198,0.000393374,0.471113366,https://doi.org/10.1021/acsami.1c20333
Cu1.00Ag1.00Te0.70Se0.30,383,263.32,7566,0.2777,0.000524607,0.723530635,https://doi.org/10.1021/acsami.1c20333
Cu2.00Se1.00,385,127.4,52850,0.3835,0.000857796,0.861150799,10.1002/adma.201302660
Cu2.00Se0.92I0.08,385,180,10760,0.5055,0.000348624,0.265519763,10.1002/adma.201302660
Cu2.00Se0.96I0.04,385,94,40986,0.644,0.000362,0.216,10.1002/adma.201302660
Tl8.98Sb1.02Te6.00,385,140,34220,0.54,0.000670712,0.478192815,https://doi.org/10.1021/cm402593f
Tl8.99Sb1.01Te6.00,385,137,40400,0.607,0.000758268,0.48094403,https://doi.org/10.1021/cm402593f
Tl9.00Bi0.95Te6.00,385,157.7,30000,0.55,0.000746079,0.52225509,https://doi.org/10.1021/cm402593f
Tl9.00Bi0.96Te6.00,385,167.8,28640,0.56,0.000806412,0.55440818,https://doi.org/10.1021/cm402593f
Tl9.00Bi0.97Te6.00,385,173.6,27100,0.5,0.000816712,0.628867944,https://doi.org/10.1021/cm402593f
Tl9.00Bi0.98Te6.00,385,190,20636,0.446,0.00074496,0.643070507,https://doi.org/10.1021/cm402593f
Tl9.00Bi0.99Te6.00,385,209,18400,0.455,0.00080373,0.680079569,https://doi.org/10.1021/cm402593f
Tl9.00Bi1.00Te6.00,385,233.47,13364,3.97,0.000728448,0.070642955,https://doi.org/10.1021/cm402593f
Tl9.00Sb0.98Te6.00,385,133,40734,0.637,0.000720544,0.435493461,https://doi.org/10.1021/cm402593f
Cs1.00Nd2.00Ag3.00Te5.00,385,32.87,126.5,0.4528,1.37E-07,0.00011621,https://doi.org/10.1021/ic5007132
Cs1.00Pr2.00Ag3.00Te5.00,385,43.52,69.12,0.6545,1.31E-07,7.70E-05,https://doi.org/10.1021/ic5007132
Cs1.00Sm2.00Ag3.00Te5.00,385,58.8,88.24,0.6068,3.05E-07,0.000193569,https://doi.org/10.1021/ic5007132
Cs1.00Tb2.00Ag3.00Te5.00,385,61.93,272.59,0.5079,1.05E-06,0.000792491,https://doi.org/10.1021/ic5007132
Tl8.97Sb1.03Te6.00,385.5,148.3,33000,0.58,0.000725765,0.4754,https://doi.org/10.1021/cm402593f
Nb1.00Co0.98Ni0.02Sn1.00,387,-127.65,84286,10.5476,0.0013734,0.050391165,https://doi.org/10.1021/acsami.1c08127
Ag8.00Sn0.50Ga0.50Se6.00,388,-520.79,66,0.22,1.79E-05,0.0459,https://doi.org/10.1021/acsami.1c17548
Ba0.50Cr5.00Se8.00,389,258.16,471,1.167392043,3.14E-05,0.01046,https://doi.org/10.1021/acs.chemmater.5b02933
Cu1.00Fe0.92In0.08S2.00,390,-373,2220,2.826,0.000308866,0.0424,10.1021/acs.jpcc.6b10308
Cu1.00Fe0.96In0.04S2.00,390,-357.9,3916,3.337,0.00050161,0.059,10.1021/acs.jpcc.6b10308
Cu1.00Fe0.98In0.02S2.00,390,-348.8,4715,4,0.000573634,0.055929285,10.1021/acs.jpcc.6b10308
Cu1.00Fe1.00S2.00,390,-359,5143,5.787,0.000662835,0.044670061,10.1021/acs.jpcc.6b10308
Ag2.00Se0.50Te0.50,390,-108,61927,0.666,0.000722317,0.422978147,https://doi.org/10.1021/acs.inorgchem.1c01563
Ag2.00Se0.60Te0.40,390,-117.5,78350,0.767,0.00108172,0.55002696,https://doi.org/10.1021/acs.inorgchem.1c01563
Ag2.00Se0.80Te0.20,390,-128,102110,0.857,0.00167297,0.761328347,https://doi.org/10.1021/acs.inorgchem.1c01563
Ag2.00Se0.90Te0.10,390,-132,111376,0.944,0.001940615,0.801737304,https://doi.org/10.1021/acs.inorgchem.1c01563
Ag1.00Sb1.00Te2.00,391,117.37,33600,0.9613,0.000462864,0.188265743,https://doi.org/10.1021/acs.inorgchem.9b00852
Ag0.94Cu1.00Se1.00,391,-14.65,59903,1.881,1.29E-05,0.002672464,https://doi.org/10.1021/ic502102e
Ag0.97Cu1.00Se1.00,391,-30.57,59903,2.1163,5.60E-05,0.01034282,https://doi.org/10.1021/ic502102e
Ca0.15Ba1.00Gd1.85Ni1.00O5.00,392,285.29,45.16504057,2.296,3.68E-06,0.00062761,https://doi.org/10.1021/acs.inorgchem.7b00049
Cu1.00Ag1.00Te0.50Se0.50,393,129.25,8527,0.3138,0.000142448,0.178400874,https://doi.org/10.1021/acsami.1c20333
Cu1.00Ag1.00Te0.60Se0.40,393,228.53,7771,0.2373,0.000405848,0.672137553,https://doi.org/10.1021/acsami.1c20333
Cu1.00Ag1.00Te0.70Se0.30,393,261.68,7133,0.2163,0.000488442,0.887461083,https://doi.org/10.1021/acsami.1c20333
Co0.95Ni0.05Ge1.00Te1.00,394,-54.89,158995,5.6489,0.000479038,0.033411984,https://doi.org/10.1021/acs.inorgchem.1c01538
Co0.97Ni0.03Ge1.00Te1.00,394,-94.89,84574,5.84,0.000761514,0.051376101,https://doi.org/10.1021/acs.inorgchem.1c01538
Co0.99Ni0.01Ge1.00Te1.00,394,-131.49,52128,6.1136,0.000901273,0.058083893,https://doi.org/10.1021/acs.inorgchem.1c01538
Co1.00Ge1.00Te1.00,394,-184.6,5320,7.341,0.00018129,0.009730071,https://doi.org/10.1021/acs.inorgchem.1c01538