Formula,temperature(K),seebeck_coefficient(μV/K),electrical_conductivity(S/m),thermal_conductivity(W/mK),power_factor(W/mK2),ZT,reference
As2.00Te2.30Se0.70,423,338.8,257.5,0.465,2.96E-05,0.028,https://doi.org/10.1021/acs.inorgchem.6b02930
As2.00Te2.60Se0.40,423,249.2,1852.5,0.534,0.000115041,0.088,https://doi.org/10.1021/acs.inorgchem.6b02930
As2.00Te2.80Se0.20,423,221.21,1671.9,0.5706,8.18E-05,0.060649665,https://doi.org/10.1021/acs.inorgchem.6b02930
As2.00Te2.90Se0.10,423,158.42,1508.59,0.6,3.79E-05,0.02613,https://doi.org/10.1021/acs.inorgchem.6b02930
As2.00Te2.00Se1.00,423,246.46,44.85,0.4126,2.72E-06,0.002792971,https://doi.org/10.1021/acs.inorgchem.6b02930
As2.00Te3.00,423,40.59,865.96,0.684,1.43E-06,0.000882308,https://doi.org/10.1021/acs.inorgchem.6b02930
Ba0.95K0.05Zn2.00As2.00,423,39.51,160000,3.3357,0.000249766,0.03167287,https://doi.org/10.1021/acs.inorgchem.7b00232
Ba0.96K0.04Zn2.00As2.00,423,55.56,100000,2.4071,0.000308691,0.054246373,https://doi.org/10.1021/acs.inorgchem.7b00232
Ba0.97K0.03Zn2.00As2.00,423,59.88,118519,2.9078,0.000424963,0.061819772,https://doi.org/10.1021/acs.inorgchem.7b00232
Ba0.98K0.02Zn2.00As2.00,423,94.4,103226,2.383,0.000919884,0.163286174,https://doi.org/10.1021/acs.inorgchem.7b00232
Ba0.99K0.01Zn2.00As2.00,423,134.6,37209,1.9362,0.000674121,0.147274742,https://doi.org/10.1021/acs.inorgchem.7b00232
Ba0.90K0.10Zn2.00As2.00,423,37.04,168421,3.4638,0.000231067,0.028217969,https://doi.org/10.1021/acs.inorgchem.7b00232
Ba1.00Zn2.00As2.00,423,230,5677,1.4823,0.000289,0.085699606,https://doi.org/10.1021/acs.inorgchem.7b00232
Li1.01Co0.85Ni0.15O2.00,423,269.5,0.2607,0.9798,1.89E-08,8.17E-06,https://doi.org/10.1021/acs.inorgchem.7b00476
Li1.04Co0.85Ni0.15O2.00,423,249,0.4763,2.0081,2.95E-08,6.22E-06,https://doi.org/10.1021/acs.inorgchem.7b00476
Li1.10Co0.85Ni0.15O2.00,423,183,2.0675,2.8,6.92E-08,1.05E-05,https://doi.org/10.1021/acs.inorgchem.7b00476
Li1.00Co0.85Ni0.15O2.00,423,211.03,0.2126,2.0341,9.47E-09,1.97E-06,https://doi.org/10.1021/acs.inorgchem.7b00476
Li1.00Co0.92Ni0.08O2.00,423,302.07,0.008703,1.4091,7.94E-10,2.38E-07,https://doi.org/10.1021/acs.inorgchem.7b00476
Li1.00Co0.96Ni0.04O2.00,423,571.23,0.007726,2.2273,2.52E-09,4.79E-07,https://doi.org/10.1021/acs.inorgchem.7b00476
Li1.00Co0.98Ni0.02O2.00,423,546.58,0.0009237,2.4886,2.76E-10,4.69E-08,https://doi.org/10.1021/acs.inorgchem.7b00476
Li1.00Co1.00O2.00,423,1052.4,0.1925,7.5909,2.13E-07,1.19E-05,https://doi.org/10.1021/acs.inorgchem.7b00476
Sn1.03Se0.08Te0.92,423,26.17,387719,5.4277,0.000265537,0.02069422,https://doi.org/10.1021/acsaem.1c02442
Sn1.03Se0.12Te0.86Br0.01,423,31.8,355263,3.8805,0.000359256,0.039161282,https://doi.org/10.1021/acsaem.1c02442
Sn1.03Se0.12Te0.88Br0.01,423,34.74,390351,4.195,0.000471102,0.04750325,https://doi.org/10.1021/acsaem.1c02442
Sn1.03Se0.12Te0.87Br0.01,423,33.2,450000,3.9182,0.000496008,0.053547901,https://doi.org/10.1021/acsaem.1c02442
Sn1.03Se0.12Te0.88,423,26.62,369298,4.459,0.000261694,0.024825383,https://doi.org/10.1021/acsaem.1c02442
Sn1.03Se0.15Te0.85,423,25.7,361739,4.283,0.000238925,0.023596841,https://doi.org/10.1021/acsaem.1c02442
Sn1.03Te1.00,423,27.07,434211,7.855,0.000318183,0.017134503,https://doi.org/10.1021/acsaem.1c02442
Sn1.00Te13.00Sb2.00,423,102.93,153125,2.19,0.001622296,0.313347547,https://doi.org/10.1021/acsaem.1c03231
Sn1.00Te15.00Sb2.00,423,84.83,181125,2.7,0.001303399,0.204199153,https://doi.org/10.1021/acsaem.1c03231
Sn1.00Te18.00Sb2.00,423,74.2,228000,3.3,0.001255286,0.160904832,https://doi.org/10.1021/acsaem.1c03231
Sn1.00Te23.00Sb2.00,423,63.62,237197,3.98,0.000960056,0.102036092,https://doi.org/10.1021/acsaem.1c03231
Sn1.00Te28.00Sb2.00,423,60.52,278250,4,0.001019138,0.107773848,https://doi.org/10.1021/acsaem.1c03231
Sn1.00Te43.00Sb2.00,423,47.07,312102,5.089,0.000691488,0.057476838,https://doi.org/10.1021/acsaem.1c03231
Sn1.00Te11.00Sb2.00,423,120.26,117848,1.89,0.001704373,0.381454883,https://doi.org/10.1021/acsaem.1c03231
Sn1.00Te1.00,423,19.138,505605,7.265,0.000185184,0.010782245,https://doi.org/10.1021/acsaem.1c03231
Bi0.42Sb1.58Te3.00,423,236.19,31915,0.971,0.001780401,0.77560214,https://doi.org/10.1021/acsami.1c13372
Ti1.00Zr0.01Ni1.00Sn1.00,423,-160,51077,2.67,0.001307571,0.2189,https://doi.org/10.1021/acsami.1c14723
Ti1.00Zr0.01Ni1.00Sn1.00,423,-176.49,47231,2.38,0.001471185,0.2773,https://doi.org/10.1021/acsami.1c14723
Ge1.00Te0.70Ag1.00Sn1.00Se20.30,423,36.02,67097,1.375,8.71E-05,0.026781086,https://doi.org/10.1021/acsami.1c14801
Ge1.00Te0.80Ag1.00Sn1.00Se20.20,423,37.27,223220,2.3077,0.000310064,0.056834613,https://doi.org/10.1021/acsami.1c14801
Ge1.00Te0.90Ag1.00Sn1.00Se20.10,423,46.58,276129,2.9904,0.000599116,0.084746559,https://doi.org/10.1021/acsami.1c14801
Ge0.55Sb0.25Te0.80Ag1.00Sn1.00Se20.20,423,189,33548,0.757,0.001198368,0.669629735,https://doi.org/10.1021/acsami.1c14801
Ge0.58Sb0.22Te0.80Ag1.00Sn1.00Se20.20,423,178.88,41290,0.74,0.0013212,0.774,https://doi.org/10.1021/acsami.1c14801
Ge0.60Sb0.20Te0.80Ag1.00Sn1.00Se20.20,423,159,54194,0.8365,0.001370079,0.692819141,https://doi.org/10.1021/acsami.1c14801
Ge1.00Te1.00,423,53.42,512821,5.057,0.001463435,0.122411151,https://doi.org/10.1021/acsami.1c14801
Ce0.75Fe3.00Co1.00Sb12.00,423,79.3,132190,7.025,0.000831275,0.050054026,https://doi.org/10.1021/acsami.1c16622
Cu0.00Pb1.00Te1.03Mn1.00,423,-208,55724,1.594,0.002410843,0.639765776,https://doi.org/10.1021/acsami.1c17254
Cu0.00Pb1.00Te1.03Mn1.00,423,-207.72,62069,1.608,0.002678128,0.704507627,https://doi.org/10.1021/acsami.1c17254
Cu0.00Pb1.00Te1.03Mn1.00,423,-202.81,59586,1.568,0.002450885,0.66117629,https://doi.org/10.1021/acsami.1c17254
Cu0.00Pb1.00Te1.03Mn1.00,423,-204.56,57655,1.56,0.002412562,0.65417535,https://doi.org/10.1021/acsami.1c17254
Cu0.01Pb0.99Te1.03Mn1.00,423,-197.02,74110,1.6213,0.002876719,0.75054101,https://doi.org/10.1021/acsami.1c17254
Pb1.00Te1.03Mn1.00,423,-212.3,58483,1.632,0.002635904,0.683203124,https://doi.org/10.1021/acsami.1c17254
Tl2.00Ge1.00Te3.00,423,227.5,3200,0.29,0.00016562,0.241576759,https://doi.org/10.1063/1.2181427
Tl4.00Pb1.00Te3.00,423,67,39900,0.823,0.000175,0.0876,https://doi.org/10.1063/1.2181427
Tl4.00Sn1.00Te3.00,423,145,20000,0.448,0.0004205,0.39,https://doi.org/10.1063/1.2181427
Mo3.00Sb7.00I0.75,423,24.5,569400,5.556,0.000341782,0.026021226,https://doi.org/10.1063/1.5144156
Mo3.00Sb7.00I1.25,423,28.2,523600,5.19,0.000416388,0.033936798,https://doi.org/10.1063/1.5144156
Mo3.00Sb7.00I1.50,423,13.7,456500,4.71,8.57E-05,0.007694872,https://doi.org/10.1063/1.5144156
Pb0.97Zn0.04Te1.00,423,-191.5,68450,1.94,0.002510216,0.547330496,https://doi.org/10.1021/acsami.1c14518
Ag2.00Se1.00,423,-87.6,139837,3.004,0.001073076,0.148,https://doi.org/10.1021/acsami.1c08410
Ag8.00Si1.00Se6.00,423,-97.93,56923,0.5433,0.000545908,0.425030359,https://doi.org/10.1021/acsami.0c15877
Ag8.00Si1.00Se6.00,423,-107.78,37927,0.47,0.00044058,0.396522065,https://doi.org/10.1021/acsami.0c15877
Ag8.00Si1.00Se6.00,423,-104.64,42571,0.492,0.000466132,0.400760194,https://doi.org/10.1021/acsami.0c15877
Ag8.00Si1.00Se6.00,423,-112.74,35047,0.4504,0.000445458,0.418358787,https://doi.org/10.1021/acsami.0c15877
Sn1.00Te1.00,423,41.46,562921,7.5495,0.000967623,0.054216094,https://doi.org/10.1021/acsami.0c09781
Sn0.98In0.01Te1.00,423,63.65,420230,5.7222,0.001702487,0.125852314,https://doi.org/10.1021/acsami.0c09781
Sn0.98In0.01Te0.95Ag1.00Cl0.05,423,63.21,478652,5.1889,0.001912456,0.155903737,https://doi.org/10.1021/acsami.0c09781
Sn0.98In0.01Te0.90Ag1.00Cl0.10,423,70.22,365169,3.5778,0.001800593,0.21288245,https://doi.org/10.1021/acsami.0c09781
Sn0.98In0.01Te0.85Ag1.00Cl0.15,423,70.51,317978,3.5889,0.001580879,0.186327738,https://doi.org/10.1021/acsami.0c09781
Cu2.00Sn1.00Se3.00,423,100.85,12245,2.0455,0.00012454,0.025754402,https://doi.org/10.1021/acsami.0c04298
Cu2.00Sn0.95Fe0.05Se3.00,423,71.43,100000,2.7025,0.000510224,0.079861225,https://doi.org/10.1021/acsami.0c04298
Ge9.00Sb2.00Te12.00,423,77.28,173636,2.8586,0.001036989,0.15344791,https://doi.org/10.1021/acsami.0c02155
Ca14.00Mg1.00Bi11.00,424,61.57,22052,0.8387,8.36E-05,0.042261558,https://doi.org/10.1021/acs.inorgchem.7b01548
Eu14.00Mg1.00Bi11.00,424,34.77,54887,1.543,6.64E-05,0.018233868,https://doi.org/10.1021/acs.inorgchem.7b01548
Sr14.00Mg1.00Bi11.00,424,41.59,59592,1.266,0.000103078,0.034522159,https://doi.org/10.1021/acs.inorgchem.7b01548
Yb14.00Mg1.00Bi11.00,424,36.14,70192,1.679,9.17E-05,0.023151497,https://doi.org/10.1021/acs.inorgchem.7b01548
Zn2.00Cu3.00In3.00Te8.00,424,159,17900,2.452,0.00045253,0.0782515,https://doi.org/10.1021/acsaem.9b02004
Ti1.00Ni1.00Sn1.00,424,-114.42,69767,4.1033,0.000913385,0.1054,https://doi.org/10.1021/acsami.1c14723
Ti1.00Zr0.03Ni1.00Sn1.00,424,-180,40630,2.7814,0.001316412,0.2108,https://doi.org/10.1021/acsami.1c14723
Sn0.91Mn0.09Te1.00,424,75,235503,3.6711,0.001324704,0.152999007,https://doi.org/10.1021/acsami.1c15595
Sn0.91Mn0.09Te0.97I0.03,424,78.35,186667,3.1832,0.001145897,0.152632662,https://doi.org/10.1021/acsami.1c15595
Sn0.91Mn0.09Te0.98I0.02,424,80.93,178974,3.0229,0.00117222,0.164418659,https://doi.org/10.1021/acsami.1c15595
Sn0.91Mn0.09Te0.99I0.01,424,81.96,194872,3.458,0.001309041,0.160507086,https://doi.org/10.1021/acsami.1c15595
Sn0.95Mn0.05Te1.00,424,55.47,375148,5.3158,0.001154301,0.092069586,https://doi.org/10.1021/acsami.1c15595
Sn0.99Mn0.01Te1.00,424,36.33,521893,7.5132,0.00068883,0.038873458,https://doi.org/10.1021/acsami.1c15595
Cu11.70Gd0.30Sb4.00S13.00,424,94.35,114608,1.416,0.001020232,0.305493058,https://doi.org/10.1021/acsami.1c03493
Ge1.00Se1.00,424,737.68,15.518,2.0096,8.44E-06,0.001781673,https://doi.org/10.1021/acsami.0c10850
Cu2.00Se1.00,425,118,51060,0.856,0.000710959,0.35298804,10.1002/adma.201302660
Cu2.00Se0.92I0.08,425,197.5,9940,0.522,0.000387722,0.315674144,10.1002/adma.201302660
Cu2.00Se0.96I0.04,425,121,39380,0.79,0.000576563,0.310176072,10.1002/adma.201302660
Ag0.98Nb0.02Bi1.00Se2.00,425,-150,14713,0.68,0.000331043,0.206901563,10.1021/ja312474n
Ag1.00Bi1.00Se2.00,425,-177.3,7620,0.674,0.000239537,0.151043304,10.1021/ja312474n
Ca5.00Al1.90Zn0.10Sb6.00,425,118.2,23770,1.27,0.000332096,0.111134614,10.1039/c3ta00844d
Ca5.00Ga1.70Zn0.30Sb6.00,425,70,56499,1.6772,0.000276845,0.070152139,10.1039/c3ta00844d
Ca5.00Ga1.80Zn0.20Sb6.00,425,72.3,47700,1.64,0.000249342,0.064615998,10.1039/c3ta00844d
Ca5.00Ga1.95Zn0.05Sb6.00,425,138.3,17900,1.186,0.000342371,0.121,10.1039/c3ta00844d
Ca5.00Ga1.90Zn0.10Sb6.00,425,115,30500,1.403,0.000403363,0.1221875,10.1039/c3ta00844d
Ca5.00Ga2.00Sb6.00,425,417.34,640,1.0952,0.000111471,0.04325691,10.1039/c3ta00844d
Cu1.00Ga0.97Mn0.03Te2.00,425,198.9,23250,4.163,0.000919798,0.093902043,10.1039/c6ta11120c
Cu1.00Ga0.98Mn0.02Te2.00,425,278.8,10439,4.532,0.000811418,0.076092782,10.1039/c6ta11120c
Cu1.00Ga0.99Mn0.01Te2.00,425,356.5,5000,3.46,0.000635461,0.078055211,10.1039/c6ta11120c
Cu12.00Sb4.00S13.00,425,87.51,97672,1.5215,0.000747972,0.208930778,https://doi.org/10.1021/acsami.1c03493
Cu11.90Gd0.10Sb4.00S13.00,425,90.62,103987,1.4979,0.00085394,0.242288764,https://doi.org/10.1021/acsami.1c03493
Cu11.80Gd0.20Sb4.00S13.00,425,91.87,107701,1.4312,0.000909007,0.269932869,https://doi.org/10.1021/acsami.1c03493
Cu11.60Gd0.40Sb4.00S13.00,425,95.28,100000,1.3257,0.000907828,0.291036307,https://doi.org/10.1021/acsami.1c03493
Cu11.50Gd0.50Sb4.00S13.00,425,98.55,90336,1.4059,0.000877352,0.26522143,https://doi.org/10.1021/acsami.1c03493
Ge1.00Te1.00,425,44,460000,5.552,0.00089056,0.06817147,https://doi.org/10.1021/acsami.1c11599
Ge0.89In0.05Pb0.06Te1.00,425,170.76,52273,1.213,0.001524227,0.534044992,https://doi.org/10.1021/acsami.1c11599
Ge0.87In0.05Pb0.08Te1.00,425,207.39,43511,1.1,0.001871435,0.723054333,https://doi.org/10.1021/acsami.1c11599
Ge0.85In0.05Pb0.10Te1.00,425,242.35,27446,0.9333,0.001612,0.734062049,https://doi.org/10.1021/acsami.1c11599
Ge0.83In0.05Pb0.12Te1.00,425,254.45,16862,0.9267,0.001091727,0.500684057,https://doi.org/10.1021/acsami.1c11599
Yb1.00Si2.00,426,-43.6,671200,9.5,0.001275924,0.057215134,10.1002/pssr.201700372
Cu5.13Sn1.87S6.30Cl0.70,426,76.42,87452,1.76,0.000510721,0.123617724,https://doi.org/10.1021/acs.chemmater.1c03434
Cu2.00Se0.50S0.50,426,52.97,148286,1.616,0.000416064,0.109680227,https://doi.org/10.1021/acs.inorgchem.1c01631
Cu2.00Se0.70S0.30,426,51,140857,1.38933,0.000366369,0.112337039,https://doi.org/10.1021/acs.inorgchem.1c01631
Cu2.00Se0.90S0.10,426,57.92,66000,0.63467,0.000221412,0.148615009,https://doi.org/10.1021/acs.inorgchem.1c01631
Ba1.00Gd2.00Ni1.00O5.00,426,525,4.669387755,2.382,1.29E-06,0.000230169,https://doi.org/10.1021/acs.inorgchem.7b00049
Sn0.97Mn0.03Te1.00,426,53.13,357396,5.8026,0.001008856,0.074065556,https://doi.org/10.1021/acsami.1c15595
Ag8.00Sn0.60Ga0.40Se6.00,426,-510.98,396,0.248991634,0.000103396,0.1769,https://doi.org/10.1021/acsami.1c17548
Ag8.00Sn0.70Ga0.30Se6.00,426,-442.99,132,0.243,2.59E-05,0.069,https://doi.org/10.1021/acsami.1c17548
Ag8.00Sn1.00Se6.00,426,-440.8,495,0.262,9.62E-05,0.14,https://doi.org/10.1021/acsami.1c17548
Bi2.00Te3.00,426,-132.8,27078,0.874,0.000477543,0.232761368,https://doi.org/10.1021/acsami.1c00355
Bi1.94Nb0.06Te3.00,426,-107.14,72353,0.8611,0.000830539,0.41088079,https://doi.org/10.1021/acsami.1c00355
Bi1.92Nb0.08Te3.00,426,-112.53,112792,0.8144,0.001428285,0.747113819,https://doi.org/10.1021/acsami.1c00355
Bi1.90Nb0.10Te3.00,426,-112.53,64706,0.7774,0.000819372,0.44899991,https://doi.org/10.1021/acsami.1c00355
Mg2.00Cu3.00In3.00Te8.00,427,338.3,1793,2.31,0.000205203,0.037931514,https://doi.org/10.1021/acsaem.9b02004
Cd2.00Cu3.00In3.00Te8.00,427,171,15000,1.476,0.000438615,0.126889299,https://doi.org/10.1021/acsaem.9b02004
Sn1.00Te21.00Cu1.00Sb1.00,427,58.24,226651,3.205,0.000768777,0.102423642,https://doi.org/10.1021/acsami.1c15614
Sn1.00Te21.00Cu1.00Sb1.00,427,55.7,250100,3.615,0.000775933,0.091652361,https://doi.org/10.1021/acsami.1c15614
Sn1.00Te21.00Cu1.00Sb1.00,427,44.2,297300,4.236,0.000580817,0.058547907,https://doi.org/10.1021/acsami.1c15614
Sn1.00Te21.00Cu1.00Sb1.00,427,35.16,375837,6.2346,0.000464619,0.031821199,https://doi.org/10.1021/acsami.1c15614
Rb2.00Bi8.00Se12.91,428,-166,10795,0.7137,0.000297467,0.178388517,https://doi.org/10.1021/acs.chemmater.0c00703
Rb2.00Bi8.00Se12.94,428,-194.4,8030,0.664,0.000303465,0.195606713,https://doi.org/10.1021/acs.chemmater.0c00703
Rb2.00Bi8.00Se12.96,428,-218.5,8480,0.587,0.000404854,0.295191877,https://doi.org/10.1021/acs.chemmater.0c00703
Rb2.00Bi8.00Se12.97Cl0.03,428,-106.7,21770,0.769,0.000247849,0.137944598,https://doi.org/10.1021/acs.chemmater.0c00703
Rb2.00Bi8.00Se12.98,428,-257.2,5455,0.619,0.000360858,0.249511061,https://doi.org/10.1021/acs.chemmater.0c00703
Rb2.00Bi8.00Se12.98Cl0.02,428,-131.82,14485,0.7046,0.000251699,0.152891114,https://doi.org/10.1021/acs.chemmater.0c00703
Rb2.00Bi8.00Se12.99Cl0.01,428,-178.62,8603,0.59,0.00027448,0.199114024,https://doi.org/10.1021/acs.chemmater.0c00703
Rb2.00Bi8.00Se12.99,428,-263.6,5455,0.608,0.00037904,0.266824532,https://doi.org/10.1021/acs.chemmater.0c00703
Rb2.00Bi8.00Se12.99Cl0.01,428,-237.48,6029,0.5289,0.000340016,0.275150031,https://doi.org/10.1021/acs.chemmater.0c00703
Rb2.00Bi8.00Se13.00,428,-287.3,1180,0.455,9.74E-05,0.091619018,https://doi.org/10.1021/acs.chemmater.0c00703
Ca1.14Yb3.86Al1.68In0.32Sb6.00,428,174.59,7006,0.942,0.000213555,0.0962,https://doi.org/10.1021/acs.inorgchem.0c01944
In0.01Pb0.99Te0.99I0.01,428,-160.2,72200,1.8,0.001852,0.440588832,https://doi.org/10.1063/1.3694742
In0.01Pb0.99Te1.00I0.00,428,-200,42700,1.756,0.001708,0.416300683,https://doi.org/10.1063/1.3694742
In0.01Pb0.99Te1.00I0.00,428,-231.5,28100,1.53,0.001505942,0.421270113,https://doi.org/10.1063/1.3694742
In0.01Pb0.99Te1.00I0.00,428,-260.7,18890,1.6,0.001283849,0.343429665,https://doi.org/10.1063/1.3694742
In0.01Pb0.98Te0.99I0.01,428,-212.5,27700,1.592,0.001250828,0.336277913,https://doi.org/10.1063/1.3694742
In0.01Pb0.99Te0.99I0.01,428,-186.51,49000,1.657,0.001704513,0.440272525,https://doi.org/10.1063/1.3694742
In0.01Pb0.99Te1.00I0.00,428,-210.55,35200,1.5766,0.001568,0.423618972,https://doi.org/10.1063/1.3694742
In0.01Pb0.99Te1.00I0.00,428,-238.7,23350,1.61,0.001336,0.353679278,https://doi.org/10.1063/1.3694742
Pb1.00Te1.00,428,-269.84,24079,1.58,0.001753279,0.482,https://doi.org/10.1021/acsami.1c14518
Cu3.00Sn1.00S40.85Ga2.00Te30.15,429,102.02,50000,1.632,0.000520404,0.13679738,https://doi.org/10.1021/acs.inorgchem.1c01028
Cu3.00Sn1.00S40.88Ga2.00Te30.12,429,96,80475,2.1923,0.000741658,0.145131191,https://doi.org/10.1021/acs.inorgchem.1c01028
Nb0.75Ta0.25Co1.00Sn0.90Sb0.10,430,-120,116028,4.49,0.001670803,0.160010106,https://doi.org/10.1021/acsaem.1c02293
Nb0.85Ta0.15Co1.00Sn0.90Sb0.10,430,-114.42,121135,4.804,0.001585892,0.141951174,https://doi.org/10.1021/acsaem.1c02293
Nb0.80Ta0.20Co1.00Sn0.90Sb0.10,430,-116.15,118156,4.7268,0.001594022,0.14500916,https://doi.org/10.1021/acsaem.1c02293
Nb0.95Ta0.05Co1.00Sn0.90Sb0.10,430,-102.885,135035,5.245,0.001429389,0.117185381,https://doi.org/10.1021/acsaem.1c02293
Nb0.90Ta0.10Co1.00Sn0.90Sb0.10,430,-111.1,129362,5.015,0.001596742,0.136909113,https://doi.org/10.1021/acsaem.1c02293
Nb1.00Co1.00Sn0.90Sb0.10,430,-99.62,140000,6.177,0.00138938,0.096719037,https://doi.org/10.1021/acsaem.1c02293
Sn1.00Te21.00Cu1.00Sb1.00,430,51.37,259589,3.788,0.000685023,0.07776137,https://doi.org/10.1021/acsami.1c15614
Sn1.00Te21.00Cu1.00Sb1.00,430,40.66,326803,5.0311,0.000540282,0.046177061,https://doi.org/10.1021/acsami.1c15614
Ge1.00Se0.95Te0.05,430,595.35,55.012,1.4223,1.95E-05,0.00589494,https://doi.org/10.1021/acsami.0c10850
Ge1.00Se0.90Te0.10,430,104.96,2584,1.534,2.85E-05,0.007979639,https://doi.org/10.1021/acsami.0c10850
Ge1.00Se0.85Te0.15,430,22.15,73881,1.8932,3.62E-05,0.008232888,https://doi.org/10.1021/acsami.0c10850
Ge1.00Se0.80Te0.20,430,21.54,91045,1.8786,4.22E-05,0.009669002,https://doi.org/10.1021/acsami.0c10850
Ge1.00Se0.75Te0.25,430,20.53,83955,1.6262,3.54E-05,0.009356619,https://doi.org/10.1021/acsami.0c10850
Ge1.00Se0.70Te0.30,430,20,85075,1.6117,3.40E-05,0.009079171,https://doi.org/10.1021/acsami.0c10850
Ge1.00Se0.65Te0.35,430,18,110075,1.8641,3.57E-05,0.008226838,https://doi.org/10.1021/acsami.0c10850
Ge1.00Se0.60Te0.40,430,70.8,168519,2.6359,0.000844725,0.137801808,https://doi.org/10.1021/acsami.0c10850
Ge1.00Se0.55Te0.45,430,70.77,181852,2.4663,0.000910786,0.158795805,https://doi.org/10.1021/acsami.0c10850
Ge1.00Se0.50Te0.50,430,66.04,196667,2.6456,0.00085772,0.139408706,https://doi.org/10.1021/acsami.0c10850
Ca1.00Ti1.00O3.00,432,-259,3600,4.03,0.000241492,0.025886941,https://doi.org/10.1016/j.cej.2021.131121 
La0.15Ca0.85Ti1.00O3.00,432,-86,115100,3.85,0.00085128,0.105,https://doi.org/10.1016/j.cej.2021.131121 
La0.25Ca0.75Ti1.00O3.00,432,-66,151000,3.66,0.000657756,0.077636774,https://doi.org/10.1016/j.cej.2021.131121 
La0.20Ca0.80Ti1.00O3.00,432,-72,192473,3.776,0.00099778,0.1141528,https://doi.org/10.1016/j.cej.2021.131121 
Ag0.15Sb0.15Sn0.70S0.15Se0.15Te0.70,432,113.1,64206,1.189,0.000821298,0.298402678,https://doi.org/10.1021/acsaem.1c02448
Sn1.00Te21.00Cu1.00Sb1.00,432,51.92,259589,3.7888,0.000699771,0.079788026,https://doi.org/10.1021/acsami.1c15614
Sn1.00Te21.00Cu1.00Sb1.00,432,61.2,210400,3.16,0.000788041,0.107732129,https://doi.org/10.1021/acsami.1c15614
Ag0.05Sb0.05Sn0.90S0.05Se0.05Te0.90,434,68.32,201869,3.176,0.000942248,0.128758107,https://doi.org/10.1021/acsaem.1c02448
Ag0.10Sb0.10Sn0.80S0.10Se0.10Te0.80,434,98.02,112150,1.7027,0.001077528,0.27465042,https://doi.org/10.1021/acsaem.1c02448
Ag1.00Sb1.00Te2.00,439,137.02,33533,1.0393,0.000629565,0.265927915,https://doi.org/10.1021/acs.inorgchem.9b00852
Ag1.00Sb0.93Mn0.07Te2.00,442,103.83,91351,1.184,0.000984825,0.367645776,https://doi.org/10.1021/acs.inorgchem.9b00852
Cu1.00Ag1.00Te0.50Se0.50,443,203.8,4807,0.3246,0.000199656,0.272481921,https://doi.org/10.1021/acsami.1c20333
Cu1.00Ag1.00Te0.60Se0.40,443,232.07,6386,0.3596,0.000343928,0.423692681,https://doi.org/10.1021/acsami.1c20333