Formula,temperature(K),seebeck_coefficient(μV/K),electrical_conductivity(S/m),thermal_conductivity(W/mK),power_factor(W/mK2),ZT,reference
Cu1.00Ag1.00Te0.60Se0.40,403,239.13,7398,0.362,0.000423041,0.470954478,https://doi.org/10.1021/acsami.1c20333
Cu1.00Ag1.00Te0.70Se0.30,403,255.43,6695,0.2819,0.000436812,0.624459617,https://doi.org/10.1021/acsami.1c20333
Ag0.97Cr1.00Se2.00,403,96.61,21364,0.436,0.000199401,0.184308468,https://doi.org/10.1021/acsami.0c09355
Ag0.97Cr0.99Sb0.01Se2.00,403,88.98,19184,0.5243,0.000151888,0.116747921,https://doi.org/10.1021/acsami.0c09355
Ag0.97Cr0.97Sb0.03Se2.00,403,86.02,21461,0.4736,0.000158799,0.135127015,https://doi.org/10.1021/acsami.0c09355
Ag0.97Cr0.95Sb0.05Se2.00,403,96.4,12240,0.5201,0.000113746,0.088136069,https://doi.org/10.1021/acsami.0c09355
Ag0.97Cr0.99Bi0.01Se2.00,403,92.8,16549,0.4628,0.000142517,0.124102178,https://doi.org/10.1021/acsami.0c09355
Ag0.97Cr0.97Bi0.03Se2.00,403,85.38,18008,0.4301,0.000131274,0.123002344,https://doi.org/10.1021/acsami.0c09355
Ag0.97Cr0.95Bi0.05Se2.00,403,97.03,14780,0.4724,0.000139151,0.118708455,https://doi.org/10.1021/acsami.0c09355
In3.94Pb0.06Se3.00,405,-220,7800,1.345,0.00037752,0.113677026,10.1002/adma.201302038
In3.95Pb0.05Se3.00,405,-230,7500,0.93,0.00039675,0.172778226,10.1002/adma.201302038
In3.96Pb0.04Se3.00,405,-221,8700,1.04,0.000424917,0.165472369,10.1002/adma.201302038
In3.99Pb0.01Se3.00,405,-221,10700,0.97,0.000522599,0.218198426,10.1002/adma.201302038
Cu3.00Sn1.00S40.90Ga2.00Te30.11,405,62.63,161268,2.886,0.000632576,0.088771124,https://doi.org/10.1021/acs.inorgchem.1c01028
Cu3.00Sn1.00S40.91Ga2.00Te30.09,405,58.08,168430,3.742,0.000568163,0.061492748,https://doi.org/10.1021/acs.inorgchem.1c01028
Ag0.01Cr1.99Se3.00,405,119.58,34000,1.6183,0.000486179,0.12167238,https://doi.org/10.1021/acs.inorgchem.8b01704
Ag0.02Cr1.98Se3.00,405,118.14,32979,1.5408,0.00046029,0.120987407,https://doi.org/10.1021/acs.inorgchem.8b01704
Ag0.03Cr1.97Se3.00,405,114,34821,1.514,0.000452534,0.124,https://doi.org/10.1021/acs.inorgchem.8b01704
Ag0.04Cr1.96Se3.00,405,110.39,34110,1.499,0.000415663,0.112303832,https://doi.org/10.1021/acs.inorgchem.8b01704
Cr1.00Se3.00,405,124.7,32900,1.7708,0.000511598,0.117007666,https://doi.org/10.1021/acs.inorgchem.8b01704
Sr14.80Ga28.60Ge56.60,408,-87.3,108391,2.151,0.000826079,0.156690066,10.1063/1.2194187
Cu1.00Ag1.00Te0.50Se0.50,408,225,7361,0.3024,0.000372651,0.502782589,https://doi.org/10.1021/acsami.1c20333
Cu1.00Ag1.00Te0.60Se0.40,408,237.77,7229,0.3398,0.000408688,0.490714769,https://doi.org/10.1021/acsami.1c20333
Cu1.00Ag1.00Te0.70Se0.30,408,252.45,6349,0.2855,0.000404628,0.578242659,https://doi.org/10.1021/acsami.1c20333
Cu2.00Se1.00,410,85,55023,0.8589,0.000397541,0.189768171,10.1002/adma.201302660
Cu2.00Se0.92I0.08,410,190,10278,0.519,0.000371036,0.293111133,10.1002/adma.201302660
Cu2.00Se0.96I0.04,410,115.56,40864,0.78767,0.000545702,0.284050458,10.1002/adma.201302660
Tm1.00Cu1.00Te2.00,410,91.4,75267,1.386014935,0.000628778,0.186,10.1002/chem.201404453
Ag8.00Ge1.00Te6.00,413,467,275,0.267,6.00E-05,0.091,10.1002/pssr.200701302
Ba8.03Cu5.00Ge40.97,415,-113.73,45700,1.32,0.000591107,0.185840534,10.1103/PhysRevB.87.115206
Ba8.00Cu5.18Si9.98Ge30.85,415,-90.4,69900,1.67,0.000571234,0.141953355,10.1103/PhysRevB.87.115206
Ba8.00Cu5.00Si25.00Ge16.00,415,-66.2,107000,1.88,0.000468921,0.103511834,10.1103/PhysRevB.87.115206
Cu5.13Sn1.87S6.65Cl0.35,415,68.75,118325,1.9375,0.000559271,0.119792135,https://doi.org/10.1021/acs.chemmater.1c03434
Cu5.13Sn1.87S7.00,415,32.1,370492,5.2125,0.000381759,0.030394215,https://doi.org/10.1021/acs.chemmater.1c03434
Cu5.00Sn2.00S6.65Cl0.35,415,58.24,143949,2.4,0.00048826,0.084428338,https://doi.org/10.1021/acs.chemmater.1c03434
K0.97Ba0.03Ga1.00Sb4.00,416,-176.87,24338,0.976651498,0.000761366,0.3243,https://doi.org/10.1021/acs.chemmater.7b01217
K0.98Ba0.01Ga1.00Sb4.00,416,-184,24338,0.956947874,0.000823987,0.3582,https://doi.org/10.1021/acs.chemmater.7b01217
K0.98Ba0.02Ga1.00Sb4.00,416,-161.9,26668,0.960332449,0.000699011,0.3028,https://doi.org/10.1021/acs.chemmater.7b01217
K0.99Ba0.01Ga1.00Sb4.00,416,-231.6,3942,0.802558145,0.000211443,0.1096,https://doi.org/10.1021/acs.chemmater.7b01217
K0.99Ba0.01Ga1.00Sb4.00,416,-186.4,14178,0.868336618,0.000492614,0.236,https://doi.org/10.1021/acs.chemmater.7b01217
Cr1.99Fe0.01Ge2.00Te6.00,416,468.04,304.69,0.7798,6.67E-05,0.035606906,https://doi.org/10.1021/acs.chemmater.7b02346
Cr1.99Mn0.01Ge2.00Te6.00,416,346.9,1609.375,0.763,0.000193672,0.105592882,https://doi.org/10.1021/acs.chemmater.7b02346
Cr2.00Ge2.00Te6.00,416,514.43,218.75,0.829,5.79E-05,0.029049552,https://doi.org/10.1021/acs.chemmater.7b02346
Ba8.02Cu4.98Si35.00Ge5.99,417,-58,131400,2.17,0.00044203,0.0827,10.1103/PhysRevB.87.115206
Ba8.04Cu4.99Si18.00Ge22.98,417,-154,28650,1.3,0.000679463,0.217950952,10.1103/PhysRevB.87.115206
Ba8.04Cu4.90Si3.23Ge37.83,417,-80.8,85500,1.563,0.000558199,0.148924419,10.1103/PhysRevB.87.115206
Ba8.07Cu4.89Si41.03,417,-54.3,150300,2.861,0.000443158,0.0638,10.1103/PhysRevB.87.115206
Ba8.00Cu5.04Si13.01Ge27.96,417,-83,80226,1.873,0.000552677,0.122,10.1103/PhysRevB.87.115206
Ag1.00Bi1.00Se2.00,418,-145,20928,0.59,0.000440011,0.311736748,10.1039/c7dt04821a
Ag0.01Sn0.99Se1.00,418,336.75,1147,0.4068,0.00013007,0.133651539,https://doi.org/10.1021/acs.chemmater.7b01612
Ag0.01Sn0.99Se0.65S0.35,418,359.4,463,0.2329,5.98E-05,0.107335635,https://doi.org/10.1021/acs.chemmater.7b01612
Ag0.01Sn0.99Se0.85S0.15,418,352.56,841,0.1918,0.000104535,0.2278189,https://doi.org/10.1021/acs.chemmater.7b01612
Ag0.01Sn0.99Se0.80S0.20,418,362.82,868,0.1699,0.000114262,0.281115677,https://doi.org/10.1021/acs.chemmater.7b01612
Ag0.01Sn0.99Se0.90S0.10,418,347.44,1108,0.263,0.000133752,0.212578788,https://doi.org/10.1021/acs.chemmater.7b01612
Ba1.40Bi0.60Co1.00Ru1.00O6.00,418,143.3,21940,1.1677,0.000450535,0.161277583,https://doi.org/10.1021/acs.inorgchem.1c02442
Ba1.60Bi0.40Co1.00Ru1.00O6.00,418,74,37870,1.279,0.000207376,0.067774213,https://doi.org/10.1021/acs.inorgchem.1c02442
Ba1.80Bi0.20Co1.00Ru1.00O6.00,418,37.4,66050,1.362,9.24E-05,0.028354057,https://doi.org/10.1021/acs.inorgchem.1c02442
Ba1.80Bi0.20Co1.00Ru1.00O6.00,418,45.56,54592,1.328,0.000113317,0.035667662,https://doi.org/10.1021/acs.inorgchem.1c02442
Ba1.90Bi0.10Co1.00Ru1.00O6.00,418,30.87,86290,1.4325,8.22E-05,0.023994703,https://doi.org/10.1021/acs.inorgchem.1c02442
Ba2.00Co1.00Ru1.00O6.00,418,26,102900,1.4623,6.96E-05,0.019883914,https://doi.org/10.1021/acs.inorgchem.1c02442
Ca11.00Sb10.00,419,15.85,2165,0.8313,5.44E-07,0.00027414,https://doi.org/10.1021/acs.inorgchem.7b00617
Ca2.00Yb9.00Sb10.00,419,4.89,132653,1.9441,3.17E-06,0.000683644,https://doi.org/10.1021/acs.inorgchem.7b00617
Ca2.00Yb9.00Sb9.00Ge1.00,419,19.56,873.47,1.8447,3.34E-07,7.59E-05,https://doi.org/10.1021/acs.inorgchem.7b00617
Ca6.00Yb5.00Sb10.00,419,8.296,51429,1.2219,3.54E-06,0.001213735,https://doi.org/10.1021/acs.inorgchem.7b00617
Ca9.00Yb2.00Sb10.00,419,14.96,52245,0.75,1.17E-05,0.006532218,https://doi.org/10.1021/acs.inorgchem.7b00617
Ca9.00Yb2.00Sb7.00Ge3.00,419,52,206,0.9969,5.57E-07,0.000234119,https://doi.org/10.1021/acs.inorgchem.7b00617
Ca9.00Yb2.00Sb9.00Ge1.00,419,-3.56,12371,0.7875,1.57E-07,8.34E-05,https://doi.org/10.1021/acs.inorgchem.7b00617
Pb0.99Zn0.02Te1.00,419,-268.2,40600,1.6643,0.002920408,0.735234691,https://doi.org/10.1021/acsami.1c14518
Pb0.98Zn0.03Te1.00,419,-217.12,53200,1.7874,0.002507906,0.587900138,https://doi.org/10.1021/acsami.1c14518
Pb0.98Zn0.04Te1.00,419,-208.9,59400,1.9077,0.002592169,0.565,https://doi.org/10.1021/acsami.1c14518
Cu10.50Ni0.50Zn1.00Sb4.00S13.00,420,188,8765,0.446,0.000307,0.291730644,10.1021/cm502570b
Cu10.50Ni1.50Sb4.00S13.00,420,157,21000,0.675,0.000517629,0.3237,10.1021/cm502570b
Cu10.50Ni1.00Zn0.50Sb4.00S13.00,420,176,17950,0.524,0.00052,0.442,10.1021/cm502570b
Ba8.01Ga15.83Zn0.02Sn30.15,420,466.5,4480,0.757,0.000974948,0.540922095,https://doi.org/10.1021/acs.chemmater.5b00025
Ba8.01Ga15.88Zn0.01Sn30.11,420,423,6360,0.829063564,0.001137988,0.5765,https://doi.org/10.1021/acs.chemmater.5b00025
Ba8.01Ga15.89Zn0.01Sn30.10,420,382.8,11985,0.8766,0.001756232,0.841452724,https://doi.org/10.1021/acs.chemmater.5b00025
Ba8.00Ga15.88Zn0.01Sn30.12,420,374,13684,0.892836613,0.001923,0.9046,https://doi.org/10.1021/acs.chemmater.5b00025
Ca1.55Yb3.45Al2.00Sb6.00,420,177.07,419,0.9083,1.31E-05,0.006074688,https://doi.org/10.1021/acs.inorgchem.0c01944
Ca1.58Yb3.42Al2.00Sb6.00,420,29,23333,3.825,1.96E-05,0.002154688,https://doi.org/10.1021/acs.inorgchem.0c01944
Bi0.82Ba0.17Cu1.00Se1.00O1.00,420,162.82,19519,0.6819,0.0007102,0.437430708,https://doi.org/10.1021/acsaem.1c02720
Bi0.88Ba0.12Cu1.00Se1.00O1.00,420,178.2,15000,0.859,0.000527,0.257671711,https://doi.org/10.1021/acsaem.1c02720
Bi0.80Ba0.20Cu1.00Se1.00O1.00,420,180.25,17500,0.8047,0.0007,0.365353548,https://doi.org/10.1021/acsaem.1c02720
Bi0.95Ba0.05Cu1.00Se1.00O1.00,420,252,5000,0.767,0.00031752,0.173870143,https://doi.org/10.1021/acsaem.1c02720
Bi1.00Cu1.00Se1.00O1.00,420,421.15,874,0.6898,0.000155019,0.094386774,https://doi.org/10.1021/acsaem.1c02720
Cu1.00I0.00Bi2.00Te3.00,420,-170.86,93431,1.3852,0.002727544,0.827005902,https://doi.org/10.1021/acsami.0c09529
Ca0.10Ba1.00Gd1.90Ni1.00O5.00,421,230.88,27.59561296,2.4228,1.47E-06,0.00025561,https://doi.org/10.1021/acs.inorgchem.7b00049
Ag3.00Rb1.00Mo9.00Se11.00,421,96.04,5926,0.7136,5.47E-05,0.032247289,https://doi.org/10.1021/acs.inorgchem.7b01200
Ca0.99Yb4.01Al2.00Sb5.84Ge0.16,421,242.92,1308,1.037,7.72E-05,0.031335572,https://doi.org/10.1021/acs.inorgchem.9b00181
Sn1.00Te1.00,421,20.7,553846,6.9474,0.000237317,0.014381014,https://doi.org/10.1021/acsami.1c15595
Pb1.00Zn0.01Te1.00,421,-292.7,27830,1.522,0.002384288,0.665,https://doi.org/10.1021/acsami.1c14518
Ca3.00Al0.95Zn0.05Sb3.00,422,184,4745,1.06,0.000160647,0.06,10.1039/c2jm31324c
Ca3.00Al0.98Zn0.02Sb3.00,422,200,3150,1.103,0.000126,0.046,10.1039/c2jm31324c
Ca3.00Al0.99Zn0.01Sb3.00,422,171.7,10900,1.269,0.000321342,0.101,10.1039/c2jm31324c
Ca3.00Al1.00Sb3.00,422,351.85,326.7,0.9884,4.04E-05,0.015,10.1039/c2jm31324c
Ca5.00In1.98Zn0.02Sb6.00,422,263.7,5418,0.9328,0.000376755,0.164,10.1039/c3dt50428j
Ca5.00In1.90Zn0.10Sb6.00,422,144,20460,1.1084,0.000424259,0.15,10.1039/c3dt50428j
Ca5.00In2.00Sb6.00,422,479.5,974,0.8656,0.000223942,0.109177057,10.1039/c3dt50428j
Cu5.00Sn2.00S7.00,422,42.045,243011,4.2375,0.00042959,0.042781636,https://doi.org/10.1021/acs.chemmater.1c03434
Cu12.00Sb4.00S13.00,422,107.2,26850,0.6053,0.000308556,0.215117448,https://doi.org/10.1021/acs.chemmater.6b04950
Cu11.00Zn1.00Sb4.00S13.00,422,147.9,10700,0.453,0.000234056,0.218039097,https://doi.org/10.1021/acs.chemmater.6b04950
Ca1.11Yb3.89Al2.00Sb5.77Ge0.23,422,44.81,17944,2.193,3.60E-05,0.006933348,https://doi.org/10.1021/acs.inorgchem.9b00181
Cu1.00Ag1.00Te0.50Se0.50,422,211.41,5482,0.306,0.000245014,0.337894489,https://doi.org/10.1021/acsami.1c20333
Cu1.00Ag1.00Te0.60Se0.40,422,231.52,6783,0.3476,0.000363579,0.441399186,https://doi.org/10.1021/acsami.1c20333
Cu1.00Ag1.00Te0.70Se0.30,422,249.18,6602,0.2946,0.000409923,0.587193976,https://doi.org/10.1021/acsami.1c20333
Cu7.00P1.00Se6.00,422,179.76,2451.7,0.2569,7.92E-05,0.1301373,https://doi.org/10.1021/acsami.1c11193
Cu7.00P1.00S0.25Se0.76,422,232.54,2452,0.2863,0.000132592,0.195437053,https://doi.org/10.1021/acsami.1c11193
Cu7.00P1.00S0.50Se0.56,422,260,1250,0.26,8.45E-05,0.13715,https://doi.org/10.1021/acsami.1c11193
Cu7.00P1.00S0.55Se0.46,422,282,875,0.2265,6.96E-05,0.12964343,https://doi.org/10.1021/acsami.1c11193
Cu7.00P1.00S0.60Se0.46,422,313.1,687,0.21,6.73E-05,0.135336839,https://doi.org/10.1021/acsami.1c11193
Cu7.00P1.00S0.65Se0.36,422,297.4,559,0.209,4.94E-05,0.099829731,https://doi.org/10.1021/acsami.1c11193
Cu7.00P1.00S0.75Se0.26,422,359.17,190,0.1882,2.45E-05,0.054959977,https://doi.org/10.1021/acsami.1c11193
Cu7.00P1.00S6.00,422,125,6.62,0.202,1.03E-07,0.000216092,https://doi.org/10.1021/acsami.1c11193
Ag1.00Cu1.00Te1.00,422,120,24175,0.6,0.0003381,0.2448444,https://doi.org/10.1021/acsami.0c17836
Ag1.00Cu1.00Te0.90Se0.10,422,181.15,24078,0.358,0.0008029,0.8855,https://doi.org/10.1021/acsami.0c17836
Ag1.00Cu1.00Te0.80Se0.20,422,161.63,14757,0.4,0.000385516,0.40671902,https://doi.org/10.1021/acsami.0c17836
Ag1.00Cu1.00Te0.70Se0.30,422,191.83,14854,0.3185,0.0005536,0.7355,https://doi.org/10.1021/acsami.0c17836
Ag1.00Cu1.00Te0.60Se0.40,422,217.5,8835,0.3049,0.0004203,0.6705,https://doi.org/10.1021/acsami.0c17836
Ag1.00Cu1.00Te0.50Se0.50,422,146,2715,0.2272,5.47E-05,0.0945,https://doi.org/10.1021/acsami.0c17836
In4.00Se2.32Cl0.03,423,-246.15,23400,0.993,0.001408,0.6,10.1002/adma.201004739
In4.00Se2.67Cl0.03,423,-137.08,71050,0.742,0.001335095,0.761112292,10.1002/adma.201004739
Cu2.00Sn0.80Zn0.20S3.00,423,61,116712,2.258,0.000434285,0.081356379,10.1038/srep32501
Cu2.00Sn0.95Zn0.05S3.00,423,125,16438,1.21,0.000256844,0.089789179,10.1038/srep32501
Cu2.00Sn0.90Zn0.10S3.00,423,92.7,46850,1.588,0.000402596,0.107240525,10.1038/srep32501
Cu2.00Sn1.00S3.00,423,340,170,1.63,1.97E-05,0.005099875,10.1038/srep32501
In4.00Pb0.01Sn0.03Se2.90Cl0.06,423,-231,5225,0.772,0.000278811,0.155,10.1039/c4dt03432e
Ge0.99Te1.00,423,58,512635,4.72,0.001724504,0.154547723,10.1039/C9EE00317G
Ge1.04Te1.00,423,100.54,323462,4.105,0.003269648,0.33692112,10.1039/C9EE00317G
Ge1.00Te1.00,423,68,425150,4.72,0.001965894,0.176180719,10.1039/C9EE00317G
Cu2.82Ag0.18Sb1.00Se4.00,423,392,6490,1.08,0.000997279,0.4,10.1039/c9ta05115e
Cu2.88Ag0.12Sb1.00Se4.00,423,394,7716,1.29,0.001197801,0.4,10.1039/c9ta05115e
Cu2.94Ag0.06Sb1.00Se4.00,423,439,4615,1.42,0.000889407,0.264943195,10.1039/c9ta05115e
Cu3.00Sb1.00Se4.00,423,454,2563,1.63,0.000528275,0.137092304,10.1039/c9ta05115e
Sn1.00S1.00,423,256.4,38149,2.155,0.002507952,0.492280114,10.1126/science.aax5123
Sn1.00S0.88Se0.12,423,213,54487,1.82,0.002472021,0.574541075,10.1126/science.aax5123
Sn1.00S0.91Se0.09,423,242.5,73350,1.71,0.0042705,1.0538,10.1126/science.aax5123
Sn1.00S0.94Se0.06,423,259,47100,1.81,0.003159515,0.738383916,10.1126/science.aax5123
Sn1.00S0.97Se0.03,423,252.8,41300,2.19,0.002618,0.508,10.1126/science.aax5123
Tl1.00Cr5.00Se8.00,423,247.4,5878,0.706,0.000359773,0.215558245,dx.doi.org/10.1021/cm400365q
Bi0.92Ag0.08Cu1.00Se1.00O1.00,423,203.3,1910,0.484,7.89E-05,0.068992698,http://dx.doi.org/10.1016/j.jeurceramsoc.2014.09.015
Bi0.94Ag0.06Cu1.00Se1.00O1.00,423,250,1430,0.518,8.94E-05,0.072983832,http://dx.doi.org/10.1016/j.jeurceramsoc.2014.09.015
Bi0.96Ag0.04Cu1.00Se1.00O1.00,423,267.8,1477,0.538,0.000105926,0.083283647,http://dx.doi.org/10.1016/j.jeurceramsoc.2014.09.015
Bi0.90Ag0.10Cu1.00Se1.00O1.00,423,200,2079,0.55,8.32E-05,0.0639576,http://dx.doi.org/10.1016/j.jeurceramsoc.2014.09.015
Bi1.00Cu1.00Se1.00O1.00,423,443,500,0.658,9.81E-05,0.063080036,http://dx.doi.org/10.1016/j.jeurceramsoc.2014.09.015
Bi2.00Te3.00,423,-151.8,90500,0.755,0.002085413,1.168383831,http://dx.doi.org/10.1016/j.pnsc.2013.06.007
Ce0.20Bi1.80Te3.00,423,-150.18,72257,0.5386,0.001629687,1.279906205,http://dx.doi.org/10.1016/j.pnsc.2013.06.007
Sm0.20Bi1.80Te3.00,423,-152.27,64000,0.621,0.001483914,1.010781854,http://dx.doi.org/10.1016/j.pnsc.2013.06.007
Y0.20Bi1.80Te3.00,423,-147.4,72086,0.58,0.001566195,1.142242377,http://dx.doi.org/10.1016/j.pnsc.2013.06.007
Bi2.00S2.79Se0.21,423,-529.7,379,0.608,0.000106341,0.073983682,https://doi.org/10.1007/s11467-018-0845-4
Bi2.00S2.85Se0.15,423,-470,718,0.64,0.000158606,0.104828785,https://doi.org/10.1007/s11467-018-0845-4
Bi2.00S2.91Se0.09,423,-476,562,0.66,0.000127336,0.081610615,https://doi.org/10.1007/s11467-018-0845-4
Bi2.00S3.00,423,-641,33.5,0.576,1.38E-05,0.010108315,https://doi.org/10.1007/s11467-018-0845-4
Bi2.00Te1.95Se1.05,423,-184.7,43460,0.925,0.001484,0.673,https://doi.org/10.1007/s11664-020-08258-9
Bi2.00Te2.01Se0.99,423,-165.6,49100,0.981,0.001346487,0.581,https://doi.org/10.1007/s11664-020-08258-9
Bi2.00Te2.10Se0.90,423,-169.9,53950,1.07,0.001557321,0.6366,https://doi.org/10.1007/s11664-020-08258-9
Bi2.00Te2.55Se0.45,423,-152.4,70435,1.15,0.001635906,0.599,https://doi.org/10.1007/s11664-020-08258-9
Bi2.00Te2.70Se0.30,423,-148.9,83320,1.286,0.001847305,0.607628388,https://doi.org/10.1007/s11664-020-08258-9
Zn0.98In0.02Sb3.00,423,151.3,31920,0.81,0.000730703,0.381589211,https://doi.org/10.1016/j.intermet.2004.02.030
Zn0.90In0.14Sb3.00,423,187.5,13143,0.82,0.000462059,0.238354616,https://doi.org/10.1016/j.intermet.2004.02.030
Ag0.40Sb1.10Pb19.60Te18.80,423,-1,16247,1.555,1.62E-08,4.42E-06,https://doi.org/10.1016/j.jallcom.2004.08.049
Ag0.50Sb1.10Pb19.60Te18.80,423,1.6,29875,1.633,7.65E-08,1.98E-05,https://doi.org/10.1016/j.jallcom.2004.08.049
Ag0.80Sb0.80Pb18.30Te20.00,423,-337,4608,0.8555,0.000523326,0.258757309,https://doi.org/10.1016/j.jallcom.2004.08.049
Ag0.90Sb0.90Pb18.30Te19.90,423,-360,3168,0.955,0.000410573,0.181855806,https://doi.org/10.1016/j.jallcom.2004.08.049
Ag1.10Sb0.80Pb15.50Te22.60,423,360,4350,1.048,0.00056376,0.227548168,https://doi.org/10.1016/j.jallcom.2004.08.049
Ag1.20Sb0.80Pb14.90Te22.70,423,438.5,1800,1.06,0.000346108,0.138116703,https://doi.org/10.1016/j.jallcom.2004.08.049
Ag1.30Sb0.90Pb15.70Te22.00,423,153.6,833,1,1.97E-05,0.008313192,https://doi.org/10.1016/j.jallcom.2004.08.049
Sn0.98In0.02Se1.00,423,440,46,0.716,8.91E-06,0.005261269,https://doi.org/10.1016/j.jallcom.2016.01.190
Sn1.00Se1.00,423,397,359,0.69,5.66E-05,0.037,https://doi.org/10.1016/j.jallcom.2016.01.190
Sn0.87Mn0.10Bi0.03Te1.00,423,72,218000,4,0.001130112,0.119509344,https://doi.org/10.1016/j.jmst.2020.12.063
Sn0.91Mn0.08Bi0.01Te1.00,423,63.8,267800,4.1,0.001090064,0.112462683,https://doi.org/10.1016/j.jmst.2020.12.063
Sn1.00Te1.00,423,37,431500,9.3,0.000590724,0.026868391,https://doi.org/10.1016/j.jmst.2020.12.063
Cu3.00Sb1.00In0.00Se4.00,423,276.2,6600,1.704,0.000503491,0.124986199,https://doi.org/10.1016/j.matdes.2016.03.001
Cu3.00Sb1.00In0.00Se4.00,423,284,6200,1.68,0.000513,0.138,https://doi.org/10.1016/j.matdes.2016.03.001
Cu3.00Sb1.00In0.00Se4.00,423,303,4810,1.65,0.000441601,0.113210513,https://doi.org/10.1016/j.matdes.2016.03.001
Cu3.00Sb1.00Se4.00,423,368,3100,1.845,0.00041,0.096250131,https://doi.org/10.1016/j.matdes.2016.03.001
Sn0.97Ce0.03Te1.00,423,71.4,231645,3.5,0.001180917,0.142722248,https://doi.org/10.1016/j.mtphys.2019.100156
Sn0.98Ce0.02Te1.00,423,40.86,321520,4.1546,0.00053679,0.054653234,https://doi.org/10.1016/j.mtphys.2019.100156
Sn0.99Ce0.01Te1.00,423,32,400000,5.324,0.0004096,0.032543351,https://doi.org/10.1016/j.mtphys.2019.100156
Co1.00Sb3.00,423,-200,2941,5.4,0.00011764,0.009215133,https://doi.org/10.1016/S0925-8388(00)01275-5
Sn0.96Pb0.01Cd0.03Se1.00,423,347.7,3587,0.6957,0.000433651,0.26366903,https://doi.org/10.1021/acs.chemmater.0c03657
Sn0.96Pb0.01Cd0.04Se1.00,423,342.05,3889,0.5739,0.000455006,0.335367733,https://doi.org/10.1021/acs.chemmater.0c03657
Sn0.97Pb0.01Cd0.01Se1.00,423,356.33,2720,0.852,0.000345361,0.171464593,https://doi.org/10.1021/acs.chemmater.0c03657
Sn0.97Pb0.01Cd0.03Se1.00,423,350,3111,0.7876,0.000381098,0.204677809,https://doi.org/10.1021/acs.chemmater.0c03657
Sn1.00Se1.00,423,362.58,2365,1.024,0.000310913,0.128433774,https://doi.org/10.1021/acs.chemmater.0c03657
Ca3.20Yb1.65Pr0.15Al2.00Sb6.00,423,48.3,3000,1.46,7.00E-06,0.002027697,https://doi.org/10.1021/acs.chemmater.1c01318
Ca3.30Yb1.50Sm0.20Al2.00Sb6.00,423,68.9,7950,1.192,3.77E-05,0.013392748,https://doi.org/10.1021/acs.chemmater.1c01318
Ca3.30Yb1.50Sm0.20Al2.00Sb6.00,423,-108.33,354,0.8973,4.15E-06,0.001958409,https://doi.org/10.1021/acs.chemmater.1c01318
Ca3.46Yb1.35Pr0.19Al2.00Sb6.00,423,-141.07,667,1.4464,1.33E-05,0.003881925,https://doi.org/10.1021/acs.chemmater.1c01318
Ca1.18Yb3.82Al1.84In0.16Sb6.00,423,29.01,32909,2.933,2.77E-05,0.003994279,https://doi.org/10.1021/acs.inorgchem.0c01944
Pb6.00Bi2.00Se9.00,423,-112.8,23423,1.123,0.000298031,0.112259041,https://doi.org/10.1021/acs.inorgchem.6b02118
As2.00Te1.50Se1.50,423,589.8,21.84,0.3275,7.60E-06,0.009812761,https://doi.org/10.1021/acs.inorgchem.6b02930