Formula,temperature(K),seebeck_coefficient(μV/K),electrical_conductivity(S/m),thermal_conductivity(W/mK),power_factor(W/mK2),ZT,reference
Ag1.00Sb0.93Mn0.07Te2.00,394,88.35,99865,1.1553,0.000779518,0.265844612,https://doi.org/10.1021/acs.inorgchem.9b00852
Ag1.00Sb0.95Mn0.05Te2.00,394,92.17,72400,1.071,0.00061506,0.226268705,https://doi.org/10.1021/acs.inorgchem.9b00852
Ag1.00Sb0.99Mn0.01Te2.00,394,106.67,44933,0.936,0.00051127,0.21521393,https://doi.org/10.1021/acs.inorgchem.9b00852
Pb0.96Tl0.02Na0.02Te1.00,397,150.65,79763,1.7955,0.001810255,0.40026245,https://doi.org/10.1021/acsami.1c14236
Pb0.97Tl0.01Na0.01Te1.00,397,152.27,74339,1.767,0.001723635,0.387257081,https://doi.org/10.1021/acsami.1c14236
Pb0.98Tl0.01Na0.01Te1.00,397,146.75,85267,2.0556,0.001836273,0.354641129,https://doi.org/10.1021/acsami.1c14236
Pb0.98Tl0.01Na0.01Te1.00,397,155.52,73245,1.9205,0.001771538,0.366207027,https://doi.org/10.1021/acsami.1c14236
Pb0.99Na0.01Te1.00,397,99.68,157763,2.6944,0.001567549,0.23096685,https://doi.org/10.1021/acsami.1c14236
Pb0.99Tl0.01Na0.01Te1.00,397,159.3,63900,1.9489,0.001621558,0.330318852,https://doi.org/10.1021/acsami.1c14236
Pb0.99Tl0.01Te1.00,397,167.53,47296,1.8182,0.001327424,0.289840081,https://doi.org/10.1021/acsami.1c14236
Cu1.00Ag1.00Te0.50Se0.50,397,129.52,8395,0.2988,0.00014083,0.187113139,https://doi.org/10.1021/acsami.1c20333
Cu1.00Ag1.00Te0.60Se0.40,397,227.17,7651,0.2602,0.000394839,0.602425536,https://doi.org/10.1021/acsami.1c20333
Cu1.00Ag1.00Te0.70Se0.30,397,258.97,6982,0.2295,0.000468251,0.810002902,https://doi.org/10.1021/acsami.1c20333
Cu2.82Ag0.18Sb1.00Se4.00,398,381,7510,1.15,0.001090159,0.377289849,10.1039/c9ta05115e
Cu2.88Ag0.12Sb1.00Se4.00,398,378,9159,1.39,0.001308675,0.37471401,10.1039/c9ta05115e
Cu2.94Ag0.06Sb1.00Se4.00,398,430,4923,1.54,0.000910263,0.235249711,10.1039/c9ta05115e
Cu3.00Sb1.00Se4.00,398,465,2487,1.76,0.000537752,0.121605186,10.1039/c9ta05115e
Bi2.00Te3.00,398,-147.44,98421,0.8415,0.00213953,1.011922773,http://dx.doi.org/10.1016/j.pnsc.2013.06.007
Ce0.20Bi1.80Te3.00,398,-146.5,77900,0.514,0.001671909,1.293,http://dx.doi.org/10.1016/j.pnsc.2013.06.007
Sm0.20Bi1.80Te3.00,398,-147.7,69000,0.6,0.001505255,0.993,http://dx.doi.org/10.1016/j.pnsc.2013.06.007
Y0.20Bi1.80Te3.00,398,-143.3,78100,0.596,0.001603775,1.070977204,http://dx.doi.org/10.1016/j.pnsc.2013.06.007
Zn0.95In0.05Sb3.00,398,163.2,24034,0.83,0.000640127,0.306952621,https://doi.org/10.1016/j.intermet.2004.02.030
Ca10.00Ga1.00Sb9.00,398,32.46,203,0.6767,2.14E-07,0.0001258,https://doi.org/10.1021/acs.chemmater.0c04940
Ca10.00In1.00Sb9.00,398,125.94,2218,0.791,3.52E-05,0.017700907,https://doi.org/10.1021/acs.chemmater.0c04940
Ge0.87Mn0.05Sb0.08Te1.00,398,124.03,95876,1.86,0.001474903,0.315597477,https://doi.org/10.1021/acs.chemmater.1c00331
Ge0.95Mn0.05Te1.00,398,56.77,306186,4.2888,0.000986786,0.091573623,https://doi.org/10.1021/acs.chemmater.1c00331
Ge0.96Mn0.02Sb0.02Te1.00,398,77.1,242268,3.7754,0.00144014,0.151818575,https://doi.org/10.1021/acs.chemmater.1c00331
Ge0.98Mn0.01Sb0.01Te1.00,398,51.61,383505,5.1872,0.001021501,0.078377035,https://doi.org/10.1021/acs.chemmater.1c00331
Ge0.98Mn0.02Te1.00,398,51.6,377320,5.1337,0.001004637,0.077886433,https://doi.org/10.1021/acs.chemmater.1c00331
Ge0.99Mn0.01Te1.00,398,43.87,432990,5.9144,0.000833323,0.056077096,https://doi.org/10.1021/acs.chemmater.1c00331
Ge0.90Mn0.05Sb0.05Te1.00,398,92.3,136082,2.61,0.001183,0.176785504,https://doi.org/10.1021/acs.chemmater.1c00331
Ge1.00Te1.00,398,36.45,538144,6.727,0.000714979,0.042301446,https://doi.org/10.1021/acs.chemmater.1c00331
Ti0.93Mn0.07Ni1.00Sn0.93Sb0.07,398,-85.19,283444,6.7718,0.002057048,0.120899207,https://doi.org/10.1021/acs.chemmater.7b02685
Ti0.95Mn0.05Ni1.00Sn0.95Sb0.05,398,-108.32,237748,6.328,0.00278955,0.175448951,https://doi.org/10.1021/acs.chemmater.7b02685
Ti0.97Mn0.03Ni1.00Sn0.97Sb0.03,398,-112.2,142384,5.631,0.001792449,0.126690616,https://doi.org/10.1021/acs.chemmater.7b02685
Ti0.98Mn0.02Ni1.00Sn0.98Sb0.02,398,-121.3,159603,5.7987,0.002348349,0.161181459,https://doi.org/10.1021/acs.chemmater.7b02685
Ti0.99Mn0.01Ni1.00Sn0.99Sb0.01,398,-142.92,94400,5.8255,0.001928226,0.131737032,https://doi.org/10.1021/acs.chemmater.7b02685
Ti0.90Mn0.10Ni1.00Sn0.90Sb0.10,398,-87.135,320530,6.4027,0.002433627,0.151277338,https://doi.org/10.1021/acs.chemmater.7b02685
Ti1.00Ni1.00Sn1.00,398,-174.92,48344,4.691,0.001479182,0.12549868,https://doi.org/10.1021/acs.chemmater.7b02685
Ag8.00Si1.00Se6.00,398,-140.3,90520,0.7899,0.001781804,0.8977819,https://doi.org/10.1021/acsami.0c15877
Ag8.00Si1.00Se6.00,398,-153.63,54412,0.6579,0.001284242,0.776908613,https://doi.org/10.1021/acsami.0c15877
Ag8.00Si1.00Se6.00,398,-147.68,65198,0.6703,0.001421928,0.844289705,https://doi.org/10.1021/acsami.0c15877
Ag8.00Si1.00Se6.00,398,-158.71,50338,0.6016,0.001267957,0.838841261,https://doi.org/10.1021/acsami.0c15877
Ag2.00Se1.00,399,-127.46,284768,2.0733,0.004626356,0.548,https://doi.org/10.1021/acsami.1c08410
Cu1.85Se1.00,399,22.99,467308,4.0455,0.000246991,0.024360256,https://doi.org/10.1021/acsami.1c08886
Li0.01Cu1.85Se1.00,399,22.73,467308,3.3182,0.000241436,0.029031697,https://doi.org/10.1021/acsami.1c08886
Li0.02Cu1.85Se1.00,399,36.23,220192,3.3582,0.000289027,0.034340336,https://doi.org/10.1021/acsami.1c08886
Li0.03Cu1.85Se1.00,399,42.21,167308,2.3134,0.00029809,0.051412601,https://doi.org/10.1021/acsami.1c08886
Bi1.00Sb1.00Se0.92Br0.08,400,-138,23883,0.57,0.000454828,0.31917744,10.1002/adfm.201806558
Bi1.00Sb1.00Se0.94Br0.06,400,-141,22500,0.57,0.000447323,0.313910526,10.1002/adfm.201806558
Bi1.00Sb1.00Se0.96Br0.04,400,-141,19000,0.59,0.000377739,0.28,10.1002/adfm.201806558
Bi1.00Sb1.00Se0.98Br0.02,400,-147,19362,0.61,0.000418393,0.274356366,10.1002/adfm.201806558
Cu2.02Cd0.97Sn1.00Se4.00,400,179.3,6175,1.875,0.000198517,0.042350277,10.1002/adma.200900409
Cu2.05Cd0.95Sn1.00Se4.00,400,144.8,13595,1.677,0.000285047,0.067989722,10.1002/adma.200900409
Cu2.10Cd0.90Sn1.00Se4.00,400,134.7,22184,1.45,0.000402508,0.111036826,10.1002/adma.200900409
Cu2.00Cd1.00Sn1.00Se4.00,400,241.6,3138,2.024,0.000183167,0.036198976,10.1002/adma.200900409
Cu2.00Se1.00,400,166.7,40986,0.2,0.001138955,2.277910891,10.1002/adma.201302660
Cu2.00Se0.92I0.08,400,186,10472,0.518,0.000362289,0.279760086,10.1002/adma.201302660
Cu2.00Se0.96I0.04,400,112,41410,0.78767,0.000519447,0.263789171,10.1002/adma.201302660
Sr0.11Ba0.18Co4.00Sb12.09,400,-115,334722,4.25,0.004426698,0.416630442,10.1007/s00339-010-5711-3
Sr0.16Yb0.03Co4.00Sb11.82,400,-136,249091,3.74,0.004607187,0.492747287,10.1007/s00339-010-5711-3
Sr0.21Co4.00Sb12.25,400,-147,195454,4.29,0.004223565,0.39380564,10.1007/s00339-010-5711-3
Sr0.21Yb0.03Co4.00Sb12.12,400,-127,287273,3.94,0.004633426,0.470398601,10.1007/s00339-010-5711-3
Fe1.00V1.00Sb1.00,400,-210,104000,8.26,0.0045864,0.222101695,10.1007/s11664-016-4804-y
Ca14.00Mg1.00Sb11.00,400,121.43,2620,0.6,3.86E-05,0.026,10.1021/cm504059t
Yb14.00Mg1.00Sb11.00,400,81.5,27500,0.81,0.000182662,0.090203395,10.1021/cm504059t
Fe1.00Nb0.86Hf0.14Sb1.00,400,102.9,492248,6.4237,0.005212124,0.324555857,10.1038/ncomms9144
Fe1.00Nb0.86Zr0.14Sb1.00,400,117.96,354264,9.644,0.004929428,0.204455755,10.1038/ncomms9144
Fe1.00Nb0.88Hf0.12Sb1.00,400,115.7,435000,7.05,0.005823123,0.3345,10.1038/ncomms9144
Fe1.00Nb0.92Hf0.08Sb1.00,400,145.4,276400,7.86,0.005843417,0.297374892,10.1038/ncomms9144
Fe1.00Nb0.90Hf0.10Sb1.00,400,130.1,434900,7.862,0.007361122,0.38,10.1038/ncomms9144
Fe1.00Nb0.90Zr0.10Sb1.00,400,134.7,311628,10.847,0.005654206,0.20850766,10.1038/ncomms9144
Eu1.00Zn0.50Cd0.52Sb2.00,400,204,26235,1.3,0.001091796,0.335937157,10.1039/B916346H
Eu1.00Zn0.70Cd0.32Sb2.00,400,176,48295,1.538,0.001495986,0.389073061,10.1039/B916346H
Eu1.00Zn0.90Cd0.12Sb2.00,400,150.5,87000,1.91,0.001970572,0.412685183,10.1039/B916346H
Eu1.00Cd2.00Sb2.00,400,267,9260,1.08,0.000660136,0.244494867,10.1039/B916346H
Eu1.00Zn2.00Sb2.00,400,140.4,92390,2,0.001821206,0.364241292,10.1039/B916346H
Ag1.00Sn15.00Bi1.00Te17.00,400,94,157692,2.41,0.001393367,0.231264151,10.1039/c4ta05530f
Ag1.00Sn25.00Bi1.00Te27.00,400,66,200000,3.19,0.0008712,0.109241379,10.1039/c4ta05530f
Ag1.00Sn5.00Bi1.00Te7.00,400,131.25,83700,1.63,0.001441863,0.35383148,10.1039/c4ta05530f
Sn1.00Te1.00,400,39.66,660577,7.365,0.001039032,0.056430787,10.1039/c4ta05530f
Bi1.20Sb0.80Se2.76Cl0.24,400,-115,31602,0.69,0.000417936,0.242282,10.1039/d0ra04065g
Bi1.20Sb0.80Se2.82Cl0.18,400,-116,28287,0.77,0.00038063,0.197729804,10.1039/d0ra04065g
Bi1.20Sb0.80Se2.88Cl0.12,400,-123,22652,0.77,0.000342702,0.178027069,10.1039/d0ra04065g
Bi1.00Sb1.00Se2.76Cl0.24,400,-159,11050,0.54,0.000279355,0.206929667,10.1039/d0ra04065g
Bi1.00Sb1.00Se2.82Cl0.18,400,-152,14800,0.58,0.000341939,0.235820138,10.1039/d0ra04065g
Bi1.00Sb1.00Se2.88Cl0.12,400,-195,6740,0.52,0.000256289,0.197145,10.1039/d0ra04065g
Ba1.00Cu3.96S3.00,400,68,23454,0.7144,0.000108451,0.06072301,10.1063/1.5099291
Ba1.00Cu4.00S3.00,400,77,13920,0.75,8.25E-05,0.044016896,10.1063/1.5099291
Cu3.00P0.60Ge0.40S4.00,400,65,89800,1.582,0.000379405,0.095930468,https://doi.org/10.1002/adfm.202000973
Cu3.00P0.70Ge0.30S4.00,400,78,54300,1.26,0.000330361,0.104876571,https://doi.org/10.1002/adfm.202000973
Cu3.00P0.80Ge0.20S4.00,400,96,30740,0.982,0.0002833,0.115397084,https://doi.org/10.1002/adfm.202000973
Cu3.00P0.90Ge0.10S4.00,400,143.7,7600,0.7345,0.000156938,0.085466382,https://doi.org/10.1002/adfm.202000973
Sn1.00S1.00,400,579,0.5,1.09,1.68E-07,6.15E-05,https://doi.org/10.1016/j.jmat.2019.12.003
Mg2.16Si0.40Sn0.60Bi0.03,400,-142.9,172700,2.5455,0.003526605,0.554170859,https://doi.org/10.1016/j.jssc.2013.04.041
Mg2.16Si0.40Sn0.60Bi0.01,400,-159,146400,2.435,0.00372,0.6088,https://doi.org/10.1016/j.jssc.2013.04.041
Mg2.16Si0.40Sn0.60Bi0.02,400,-144.8,154100,2.52,0.003231021,0.512860455,https://doi.org/10.1016/j.jssc.2013.04.041
Mg2.16Si0.40Sn0.60Bi0.01,400,-175.4,107170,2.244,0.003285,0.587718752,https://doi.org/10.1016/j.jssc.2013.04.041
Cu2.70Ag0.30Er1.00Te3.00,400,47.8,260000,2.33,0.000594058,0.101984275,https://doi.org/10.1016/j.mtphys.2020.100180
Cu2.90Ag0.10Er1.00Te3.00,400,50,221778,2.24,0.000554445,0.099008036,https://doi.org/10.1016/j.mtphys.2020.100180
Cu3.00Er1.00Te3.00,400,48.6,244890,2.38,0.00057842,0.09721351,https://doi.org/10.1016/j.mtphys.2020.100180
Ag1.00Mo6.00Te8.00,400,6.11,169860,3.9438,6.34E-06,0.00073,https://doi.org/10.1016/S1003-6326(08)60326-X
Cu1.00Mo6.00Te8.00,400,-2.33,200346,3.661,1.09E-06,0.000118837,https://doi.org/10.1016/S1003-6326(08)60326-X
Ag1.00Bi0.94Pb0.06Se2.12,400,329,6298,0.68,0.000681702,0.401001069,https://doi.org/10.1021/acs.chemmater.0c00481
Ag1.00Bi0.95Pb0.05Se2.12,400,340,5497,0.658,0.000635453,0.386293739,https://doi.org/10.1021/acs.chemmater.0c00481
Ag1.00Bi0.96Pb0.04Se2.12,400,358.44,4756,0.609,0.000611047,0.401344654,https://doi.org/10.1021/acs.chemmater.0c00481
Ag1.00Bi0.97Pb0.03Se2.12,400,375.5,3723,0.5954,0.000524944,0.352666396,https://doi.org/10.1021/acs.chemmater.0c00481
Ag1.00Bi0.98Pb0.02Se2.12,400,453.95,1477,0.57,0.000304366,0.213590372,https://doi.org/10.1021/acs.chemmater.0c00481
Ag1.00Bi0.99Pb0.01Se2.12,400,548.68,379,0.5312,0.000114098,0.085917058,https://doi.org/10.1021/acs.chemmater.0c00481
Ag1.00Bi1.00Se2.12,400,642,123,0.644,5.07E-05,0.031488306,https://doi.org/10.1021/acs.chemmater.0c00481
V1.00Fe1.00Sb1.00,400,-188.8,113554,6.072,0.004047682,0.266645737,https://doi.org/10.1021/acs.chemmater.0c01189
Cu26.00Ti2.00Sb3.00Ge3.00S32.00,400,85.05,139024,1.861,0.00100563,0.216148404,https://doi.org/10.1021/acs.chemmater.1c00872
Cu26.00Ti2.00Sb4.00Ge2.00S32.00,400,136.6,53271,1.1186,0.000994013,0.355449105,https://doi.org/10.1021/acs.chemmater.1c00872
Cu1.55S1.00,400,16.24,523558,4.55,0.000138082,0.012139071,https://doi.org/10.1021/acs.chemmater.1c01856
Cu1.50S1.00,400,15.567,552885,4.986,0.000133981,0.010748612,https://doi.org/10.1021/acs.chemmater.1c01856
Cu1.60S1.00,400,20,406250,4.11,0.0001625,0.015815085,https://doi.org/10.1021/acs.chemmater.1c01856
Yb11.00Ca2.00Ba1.00Mg1.00Sb11.00,400,81.768,23198,0.6474,0.000155102,0.095830685,https://doi.org/10.1021/acs.chemmater.1c02584
Yb12.00Ca1.00Ba1.00Mg1.00Sb11.00,400,84.25,29599,0.6926,0.000210096,0.12133731,https://doi.org/10.1021/acs.chemmater.1c02584
Mg3.07Sb1.50Bi0.44Se0.06,400,-304.3,7481,0.7931,0.000692729,0.349378037,https://doi.org/10.1021/acs.chemmater.7b01746
Mg3.07Sb1.50Bi0.45Se0.05,400,-293.9,8507,0.7958,0.000734811,0.369344521,https://doi.org/10.1021/acs.chemmater.7b01746
Mg3.07Sb1.50Bi0.46Se0.04,400,-297.93,8149,0.7069,0.000723324,0.409293456,https://doi.org/10.1021/acs.chemmater.7b01746
Mg3.07Sb1.50Bi0.47Se0.03,400,-293.48,8602,0.7347,0.000740895,0.403372615,https://doi.org/10.1021/acs.chemmater.7b01746
Mg3.07Sb1.50Bi0.48Se0.02,400,-285,10734,0.7486,0.000871869,0.465866497,https://doi.org/10.1021/acs.chemmater.7b01746
Co1.00As1.00Sb1.00,400,-128.74,22690,2.8173,0.000376064,0.053393501,https://doi.org/10.1021/acs.chemmater.7b05170
Cu26.00V2.00Ge3.00Sb3.00S32.00,400,138.89,48018,1.4045,0.000926288,0.263805758,https://doi.org/10.1021/acs.inorgchem.1c01321
Cu26.00V2.00Ge4.00Sb2.00S32.00,400,84,140800,2.263,0.000993485,0.175604914,https://doi.org/10.1021/acs.inorgchem.1c01321
Cu26.00V2.00Ge5.00Sb1.00S32.00,400,54.7,260976,3.12,0.000780864,0.100110728,https://doi.org/10.1021/acs.inorgchem.1c01321
Cu26.00V2.00Ge6.00S32.00,400,32.57,389286,4.427,0.000412956,0.037312536,https://doi.org/10.1021/acs.inorgchem.1c01321
Cu2.08Sn0.93S3.00,400,47.11,281250,3.767,0.000624193,0.066280093,https://doi.org/10.1021/acs.inorgchem.1c02105
Cu22.00Sn10.00S32.00,400,57.025,195652,3.03,0.000636231,0.083990901,https://doi.org/10.1021/acs.inorgchem.1c02105
Cu22.00Sn9.25Sb0.75S32.00,400,79.016,138462,2.45,0.000864491,0.141141455,https://doi.org/10.1021/acs.inorgchem.1c02105
Cu22.00Sn9.00Sb1.00S32.00,400,90.58,87805,2.2937,0.000720417,0.12563402,https://doi.org/10.1021/acs.inorgchem.1c02105
Ag1.00Bi0.85Sb0.15Se2.00,400,561,25.9,0.388,8.15E-06,0.008403375,https://doi.org/10.1021/acs.inorgchem.9b00874
Ag1.00Bi0.95Sb0.05Se2.00,400,-377.66,20.9,0.4376,2.98E-06,0.002724777,https://doi.org/10.1021/acs.inorgchem.9b00874
Ag1.00Bi0.90Sb0.10Se2.00,400,460.94,26.6,0.3989,5.65E-06,0.005667172,https://doi.org/10.1021/acs.inorgchem.9b00874
Ag1.00Bi1.00Se2.00,400,-83.33,36,0.476,2.50E-07,0.000210067,https://doi.org/10.1021/acs.inorgchem.9b00874
Sn1.00Te0.15Ag1.00Sb1.00Se2.00,400,80.9,136577,2.163,0.000893871,0.165301991,https://doi.org/10.1021/acs.jpcc.9b03329
Sn1.00Te0.10Ag1.00Sb1.00Se2.00,400,70.8,170400,2.443,0.000854154,0.139853272,https://doi.org/10.1021/acs.jpcc.9b03329
Sn1.00Te0.25Ag1.00Sb1.00Se2.00,400,85.6,113800,1.832,0.000865,0.19,https://doi.org/10.1021/acs.jpcc.9b03329
Sn1.00Te0.20Ag1.00Sb1.00Se2.00,400,83.585,106711,1.27,0.000892,0.284,https://doi.org/10.1021/acs.jpcc.9b03329
Mg0.95Li0.05Ge0.90Si0.10,400,277.2,10320,3.6855,0.000792987,0.086065625,https://doi.org/10.1021/acsaem.1c00172
Mg0.97Li0.03Ge0.80Si0.20,400,315.44,7308,3.3396,0.000727163,0.087095879,https://doi.org/10.1021/acsaem.1c00172
Mg0.97Li0.03Ge0.90Si0.10,400,216.78,33154,3.805,0.001558025,0.163787098,https://doi.org/10.1021/acsaem.1c00172
Mg0.98Li0.02Ge0.80Si0.20,400,361.07,2538,3.3585,0.000330883,0.039408424,https://doi.org/10.1021/acsaem.1c00172
Mg0.98Li0.02Ge0.90Si0.10,400,272.8,11050,4.032,0.000822339,0.081581273,https://doi.org/10.1021/acsaem.1c00172
Mg0.99Li0.01Ge0.90Si0.10,400,292.28,10692,4.3522,0.000913392,0.083947602,https://doi.org/10.1021/acsaem.1c00172
Bi0.23Sb0.77Te3.00,400,241.93,37164,0.9346,0.002175214,0.930970923,https://doi.org/10.1021/acsaem.1c01830
Er0.01Bi0.23Sb0.77Te3.00,400,242.89,38353,0.928,0.002262656,0.975282935,https://doi.org/10.1021/acsaem.1c01830
Er0.02Bi0.23Sb0.77Te3.00,400,237.52,40731,0.8449,0.00229787,1.087877822,https://doi.org/10.1021/acsaem.1c01830
Er0.03Bi0.23Sb0.77Te3.00,400,234.63,41140,0.8682,0.002264808,1.043449844,https://doi.org/10.1021/acsaem.1c01830
Cu1.85Ag0.15Sn1.00Se3.00,400,288.78,980,0.6952,8.17E-05,0.047023021,https://doi.org/10.1021/acsami.1c17460
Cu1.88Ag0.12Sn1.00Se3.00,400,196.43,2571,0.7778,9.92E-05,0.051016395,https://doi.org/10.1021/acsami.1c17460
Cu1.93Ag0.07Sn1.00Se3.00,400,113.13,10727,1.092,0.000137288,0.050288793,https://doi.org/10.1021/acsami.1c17460
Cu1.90Ag0.10Sn1.00Se3.00,400,141.41,4439,0.9683,8.88E-05,0.036668695,https://doi.org/10.1021/acsami.1c17460
Cu2.00Sn1.00Se3.00,400,107.58,17545,1.3841,0.000203056,0.05868255,https://doi.org/10.1021/acsami.1c17460
Cu5.00Sn2.00Se7.00,400,26.34,500000,4.774,0.000346898,0.029065589,https://doi.org/10.1021/cm501899q
Mg1.00Ag1.00Sb1.00,400,201.27,36364,0.9689,0.001473092,0.608150093,https://doi.org/10.1021/cm5041826
Mg1.00Ag1.00Sb0.98In0.01,400,178.36,65045,1.19,0.00206923,0.695539623,https://doi.org/10.1021/cm5041826
Mg1.00Ag1.00Sb0.98In0.02,400,160.73,68288,1.3082,0.001942,0.5918,https://doi.org/10.1021/cm5041826
Mg1.00Ag1.00Sb0.99In0.01,400,195.45,41091,1.0279,0.001569705,0.638,https://doi.org/10.1021/cm5041826
Mg1.00Ag1.00Sb0.99In0.01,400,187.82,53273,0.9508,0.001879277,0.790608802,https://doi.org/10.1021/cm5041826
Ba0.03Co4.00Sb12.00,400,-244.3,34000,4.753,0.002029205,0.167,https://doi.org/10.1063/1.2920210
Ba0.05Yb0.09Co4.00Sb12.00,400,-186,100000,2.75,0.0034596,0.51,https://doi.org/10.1063/1.2920210
Ba0.08Yb0.09Co4.00Sb12.00,400,-145,172340,2.53,0.003623448,0.57,https://doi.org/10.1063/1.2920210
Ba0.11Yb0.03Co4.00Sb12.00,400,-136.55,150000,3.278,0.002796885,0.341291687,https://doi.org/10.1063/1.2920210
Ba0.11Yb0.08Co4.00Sb12.00,400,-127,177300,2.42,0.002859672,0.472673008,https://doi.org/10.1063/1.2920210
Ba0.15Yb0.01Co4.00Sb12.00,400,-146.2,144000,4.04,0.003077919,0.3185,https://doi.org/10.1063/1.2920210
Bi0.48Sb1.52Te3.00,400,233.31,41620,1.4203,0.002265525,0.638041148,https://doi.org/10.1021/acsami.1c05525
Mg3.50Gd0.01Sb2.00,400,-254.23,6918,1.0109,0.00044713,0.176923673,https://doi.org/10.1021/acsami.0c22558
Mg3.50Gd0.02Sb2.00,400,-241.07,12249,0.987,0.000711848,0.288489366,https://doi.org/10.1021/acsami.0c22558
Mg3.50Gd0.03Sb2.00,400,-221.07,19150,0.9902,0.000935898,0.378064126,https://doi.org/10.1021/acsami.0c22558
Mg3.50Gd0.04Sb2.00,400,-250,14893,0.9098,0.000930813,0.409238294,https://doi.org/10.1021/acsami.0c22558
Mg3.50Gd0.04Sb2.00,400,-207.5,20665,1.0429,0.000889757,0.341262789,https://doi.org/10.1021/acsami.0c22558
Mg3.50Gd0.04Sb2.00,400,-213.93,22244,1.0446,0.00101802,0.389821904,https://doi.org/10.1021/acsami.0c22558
Mg3.50Gd0.03Sb1.97Te0.03,400,-223.93,19198,0.8736,0.000962677,0.440786123,https://doi.org/10.1021/acsami.0c22558
Mg3.50Gd0.04Sb1.97Te0.03,400,-201.07,21143,0.8429,0.000854793,0.405644043,https://doi.org/10.1021/acsami.0c22558
Mg3.50Ho0.01Sb2.00,400,-245.77,2632,0.9876,0.00015898,0.064390609,https://doi.org/10.1021/acsami.0c22558
Mg3.50Ho0.02Sb2.00,400,-250,11744,1.0663,0.000734,0.27534465,https://doi.org/10.1021/acsami.0c22558
Mg3.50Ho0.03Sb2.00,400,-220.07,15724,1.0416,0.000761526,0.292444691,https://doi.org/10.1021/acsami.0c22558
Mg3.50Ho0.04Sb2.00,400,-226.1,18673,1.1393,0.000954586,0.335148373,https://doi.org/10.1021/acsami.0c22558
Mg3.50Ho0.01Sb1.97Te0.03,400,-233.8,17869,0.9888,0.000976763,0.39513072,https://doi.org/10.1021/acsami.0c22558
Mg3.50Ho0.02Sb1.97Te0.03,400,-225,22442,0.982,0.001136126,0.46278055,https://doi.org/10.1021/acsami.0c22558
Mg3.50Ho0.03Sb1.97Te0.03,400,-208.8,23829,0.9551,0.001038883,0.435088848,https://doi.org/10.1021/acsami.0c22558
Mg3.50Ho0.04Sb1.97Te0.03,400,-210.92,24310,0.9921,0.001081485,0.43603869,https://doi.org/10.1021/acsami.0c22558
Li0.03Cu1.83Bi0.02Se1.00,401,49,96552,1.5714,0.000231821,0.05915767,https://doi.org/10.1021/acsami.1c08886
Li0.03Cu1.82Bi0.03Se1.00,401,43.59,95402,1.3482,0.000181272,0.053916447,https://doi.org/10.1021/acsami.1c08886
Li0.03Cu1.81Bi0.04Se1.00,401,53.75,68966,1.4196,0.000199247,0.056282108,https://doi.org/10.1021/acsami.1c08886
Li0.03Cu1.80Bi0.05Se1.00,401,52.25,67816,1.2143,0.000185142,0.061139677,https://doi.org/10.1021/acsami.1c08886
Cu1.00Ag1.00Te0.50Se0.50,403,161.17,8216,0.3,0.000213417,0.286690059,https://doi.org/10.1021/acsami.1c20333