Formula,temperature(K),seebeck_coefficient(μV/K),electrical_conductivity(S/m),thermal_conductivity(W/mK),power_factor(W/mK2),ZT,reference
Ag0.50Sb1.10Pb19.60Te18.80,473,-14.4,29250,1.555,6.07E-06,0.001844937,https://doi.org/10.1016/j.jallcom.2004.08.049
Ag0.80Sb0.80Pb18.30Te20.00,473,-315,6900,0.81,0.00065,0.379567901,https://doi.org/10.1016/j.jallcom.2004.08.049
Ag0.90Sb0.90Pb18.30Te19.90,473,-320,5800,0.91,0.00059392,0.308707868,https://doi.org/10.1016/j.jallcom.2004.08.049
Ag1.10Sb0.80Pb15.50Te22.60,473,340,3015,1.48,0.000348534,0.111389582,https://doi.org/10.1016/j.jallcom.2004.08.049
Ag1.20Sb0.80Pb14.90Te22.70,473,344,1547,1.05,0.000183066,0.082466781,https://doi.org/10.1016/j.jallcom.2004.08.049
Ag1.30Sb0.90Pb15.70Te22.00,473,-99.2,733,0.993,7.21E-06,0.00343589,https://doi.org/10.1016/j.jallcom.2004.08.049
Sn0.98In0.02Se1.00,473,472,58,0.67,1.29E-05,0.008,https://doi.org/10.1016/j.jallcom.2016.01.190
Sn1.00Se1.00,473,391,422,0.67,6.45E-05,0.045,https://doi.org/10.1016/j.jallcom.2016.01.190
Sn0.87Mn0.10Bi0.03Te1.00,473,87.4,198000,3.85,0.001512474,0.185818293,https://doi.org/10.1016/j.jmst.2020.12.063
Sn0.91Mn0.08Bi0.01Te1.00,473,75.45,240000,3.968,0.001366249,0.162861791,https://doi.org/10.1016/j.jmst.2020.12.063
Sn1.00Te1.00,473,42,377380,8.85,0.000665698,0.035579131,https://doi.org/10.1016/j.jmst.2020.12.063
Zn0.96Al0.04O1.00,473,-75,54100,4.52,0.000304313,0.031845091,https://doi.org/10.1016/j.jpcs.2010.06.006
Zn0.97Al0.03O1.00,473,-78,45000,6.7,0.00027378,0.019328051,https://doi.org/10.1016/j.jpcs.2010.06.006
La0.10Co4.00Sb12.00,473,84,27613,3.716,0.000194837,0.024800338,https://doi.org/10.1016/j.matchemphys.2005.07.068
La0.30Co4.00Sb12.00,473,80.3,26565,3.53,0.000171294,0.02295236,https://doi.org/10.1016/j.matchemphys.2005.07.068
La0.50Co4.00Sb12.00,473,70.2,33898,2.166,0.000167051,0.036479677,https://doi.org/10.1016/j.matchemphys.2005.07.068
La0.70Co4.00Sb12.00,473,-197.3,33980,4.52,0.001322749,0.138420448,https://doi.org/10.1016/j.matchemphys.2005.07.068
Cu3.00Sb1.00In0.00Se4.00,473,290,7000,1.42,0.0005887,0.196095141,https://doi.org/10.1016/j.matdes.2016.03.001
Cu3.00Sb1.00In0.00Se4.00,473,301,6700,1.41,0.000607027,0.21,https://doi.org/10.1016/j.matdes.2016.03.001
Cu3.00Sb1.00In0.00Se4.00,473,324.5,5200,1.376,0.000547561,0.188224197,https://doi.org/10.1016/j.matdes.2016.03.001
Cu3.00Sb1.00Se4.00,473,351,3600,1.535,0.000443524,0.136668836,https://doi.org/10.1016/j.matdes.2016.03.001
Co1.00Sb3.00,473,-105,3125,5.1,3.45E-05,0.003195358,https://doi.org/10.1016/S0925-8388(00)01275-5
Yb13.43Ce0.44Mn1.07Sb11.07,473,98.7,33440,0.72,0.000325762,0.214007611,https://doi.org/10.1021/acs.chemmater.0c03043
Yb13.44Ce0.40Mn1.09Sb11.07,473,102.6,28150,0.742,0.000296328,0.188899303,https://doi.org/10.1021/acs.chemmater.0c03043
Yb13.49Ce0.39Mn1.05Sb11.08,473,98.4,33007,0.774,0.000319592,0.19530638,https://doi.org/10.1021/acs.chemmater.0c03043
Yb13.60Ce0.36Mn0.99Sb11.05,473,87.94,37828,0.874,0.000292541,0.158320084,https://doi.org/10.1021/acs.chemmater.0c03043
Sn0.96Pb0.01Cd0.03Se1.00,473,360,3349,0.6236,0.00043403,0.329211641,https://doi.org/10.1021/acs.chemmater.0c03657
Sn0.96Pb0.01Cd0.04Se1.00,473,357,3651,0.5068,0.000465316,0.43428297,https://doi.org/10.1021/acs.chemmater.0c03657
Sn0.97Pb0.01Cd0.01Se1.00,473,370.33,2512,0.7627,0.000344507,0.213650946,https://doi.org/10.1021/acs.chemmater.0c03657
Sn0.97Pb0.01Cd0.03Se1.00,473,365.33,2873,0.7031,0.000383448,0.257958797,https://doi.org/10.1021/acs.chemmater.0c03657
Sn1.00Se1.00,473,375.83,2222,0.902,0.000313853,0.164581701,https://doi.org/10.1021/acs.chemmater.0c03657
Ca10.00Ga1.00Sb9.00,473,45.9,314,0.6478,6.62E-07,0.000483031,https://doi.org/10.1021/acs.chemmater.0c04940
Ca10.00Mn1.00Sb9.00,473,32.09,9.57,0.6553,9.85E-09,7.11E-06,https://doi.org/10.1021/acs.chemmater.0c04940
Ca10.00Zn1.00Sb9.00,473,32.46,35.77,0.5956,3.77E-08,2.99E-05,https://doi.org/10.1021/acs.chemmater.0c04940
Ge12.00Sb2.00Te15.00,473,215.54,30337,1.497,0.001409381,0.445315415,https://doi.org/10.1021/acs.chemmater.8b03609
Ge4.00Sb2.00Te7.00,473,71.9,138764,1.942,0.000717356,0.174721563,https://doi.org/10.1021/acs.chemmater.8b03609
Li2.00Ge11.00Sb2.00Te15.00,473,144,140000,1.9018,0.00290304,0.722020149,https://doi.org/10.1021/acs.chemmater.8b03609
Li2.00Ge3.00Sb2.00Te7.00,473,240,27230,0.7812,0.001568448,0.949661935,https://doi.org/10.1021/acs.chemmater.8b03609
Li1.00Ge11.50Sb2.00Te15.00,473,242.7,39890,1.326,0.002349652,0.838148951,https://doi.org/10.1021/acs.chemmater.8b03609
Li1.00Ge3.50Sb2.00Te7.00,473,232.6,29000,0.938,0.00156898,0.75,https://doi.org/10.1021/acs.chemmater.8b03609
Cu2.00Zn1.00Sn0.93Ag0.07Se4.00,473,67.89,67686,2.8953,0.000311968,0.050965705,https://doi.org/10.1021/acs.inorgchem.1c00079
Cu2.00Zn1.00Sn0.95Ag0.05Se4.00,473,50.7,198718,3.117,0.000510803,0.077513521,https://doi.org/10.1021/acs.inorgchem.1c00079
Cu2.00Zn1.00Sn0.98Ag0.02Se4.00,473,95.77,50654,3.6433,0.000464593,0.060316888,https://doi.org/10.1021/acs.inorgchem.1c00079
Cu2.00Zn1.00Sn1.00Se4.00,473,144.8,16500,3.7602,0.000345956,0.043518234,https://doi.org/10.1021/acs.inorgchem.1c00079
As2.00Te1.50Se1.50,473,543.8,32.95,0.324,9.74E-06,0.014224924,https://doi.org/10.1021/acs.inorgchem.6b02930
As2.00Te2.30Se0.70,473,297.96,421.7,0.4664,3.74E-05,0.037968386,https://doi.org/10.1021/acs.inorgchem.6b02930
As2.00Te2.60Se0.40,473,263.5,2184,0.51,0.00015164,0.140638698,https://doi.org/10.1021/acs.inorgchem.6b02930
As2.00Te2.80Se0.20,473,226.26,2011.7,0.551,0.000102986,0.08840734,https://doi.org/10.1021/acs.inorgchem.6b02930
As2.00Te2.90Se0.10,473,155.45,1930.7,0.6193,4.67E-05,0.02663,https://doi.org/10.1021/acs.inorgchem.6b02930
As2.00Te2.00Se1.00,473,228.28,86.6,0.4114,4.51E-06,0.005188603,https://doi.org/10.1021/acs.inorgchem.6b02930
As2.00Te3.00,473,36.63,1154.78,0.6721,1.55E-06,0.001090436,https://doi.org/10.1021/acs.inorgchem.6b02930
Cu2.20Sn0.80Sb0.20Se3.20,473,68.57,160372,2.973,0.000754044,0.119967353,https://doi.org/10.1021/acsaem.1c01155
Cu2.50Sn0.50Sb0.50Se3.50,473,42.86,370149,4.6447,0.000679956,0.069244357,https://doi.org/10.1021/acsaem.1c01155
Cu2.80Sn0.20Sb0.80Se3.80,473,54.29,300000,4.5526,0.000884221,0.091867645,https://doi.org/10.1021/acsaem.1c01155
Cu2.00Sn1.00Se3.00,473,200,2133,1.68,8.53E-05,0.024021643,https://doi.org/10.1021/acsaem.1c01155
Cu3.00Sb1.00Se4.00,473,297.71,2623,1.753,0.00023248,0.057,https://doi.org/10.1021/acsaem.1c01155
Cu5.00Sn1.00Sb1.00Se6.30,473,51.95,148276,2.3793,0.000400168,0.079552513,https://doi.org/10.1021/acsaem.1c01155
Cu5.00Sn1.00Sb1.00Se6.58,473,45.52,246552,3.6239,0.000510873,0.066680366,https://doi.org/10.1021/acsaem.1c01155
Cu5.00Sn1.00Sb1.00Se6.79,473,47.47,316379,4.172,0.000712929,0.080828209,https://doi.org/10.1021/acsaem.1c01155
Cu5.00Sn1.00Sb1.00Se7.00,473,43.79,370500,4.629,0.000710457,0.072595895,https://doi.org/10.1021/acsaem.1c01155
Zn2.00Cu3.00In3.00Te8.00,473,169,16275,2.15,0.00046483,0.10226266,https://doi.org/10.1021/acsaem.9b02004
Al0.01Sb0.10Ge0.90Te1.00,473,204.01,44578,1.4372,0.00185534,0.610614937,https://doi.org/10.1021/acsami.1c12282
Al0.01Sb0.10Ge0.89Te1.00,473,205.7,43534,1.42,0.001842032,0.638,https://doi.org/10.1021/acsami.1c12282
Al0.01Ge0.99Te1.00,473,65.5,400000,5.243,0.0017161,0.154818863,https://doi.org/10.1021/acsami.1c12282
Al0.01Sb0.10Ge0.89Te1.00,473,231.99,37590,1.3551,0.00202307,0.6186,https://doi.org/10.1021/acsami.1c12282
Al0.02Ge0.98Te1.00,473,64.82,380357,5.253,0.00159812,0.143900799,https://doi.org/10.1021/acsami.1c12282
Al0.03Ge0.97Te1.00,473,69.11,375000,4.949,0.001791072,0.171181466,https://doi.org/10.1021/acsami.1c12282
Ge1.00Te1.00,473,61.61,425000,5.091,0.001613212,0.14988197,https://doi.org/10.1021/acsami.1c12282
Sb0.05Ge0.95Te1.00,473,121.48,189908,2.836,0.002802546,0.467420484,https://doi.org/10.1021/acsami.1c12282
Sb0.15Ge0.85Te1.00,473,222.9,19266,1.22,0.00095722,0.353,https://doi.org/10.1021/acsami.1c12282
Sb0.10Ge0.90Te1.00,473,214.07,46789,1.473,0.002144151,0.658,https://doi.org/10.1021/acsami.1c12282
Bi0.42Sb1.58Te3.00,473,217.8,27930,1.115,0.001324911,0.562047422,https://doi.org/10.1021/acsami.1c13372
Cu1.70Se1.00,473,29.7,547297,5.4161,0.000482765,0.042160954,https://doi.org/10.1021/acsami.1c18818
Cu1.80Se1.00,473,33.66,493243,4.9875,0.000558842,0.052998965,https://doi.org/10.1021/acsami.1c18818
Cu1.95In0.05Se1.00,473,177.72,21622,1.9875,0.0007005,0.166710189,https://doi.org/10.1021/acsami.1c18818
Cu1.97In0.03Se1.00,473,139.11,47651,0.9,0.000922123,0.49,https://doi.org/10.1021/acsami.1c18818
Cu1.99In0.01Se1.00,473,130,55405,0.9,0.000936344,0.5,https://doi.org/10.1021/acsami.1c18818
Cu2.10Se1.00,473,65.9,212200,2.4375,0.000921544,0.178826849,https://doi.org/10.1021/acsami.1c18818
Cu2.20Se1.00,473,113.37,74324,1.161,0.000955268,0.389183383,https://doi.org/10.1021/acsami.1c18818
Cu2.00Se1.00,473,58.7,241800,2.7329,0.000833168,0.14420154,https://doi.org/10.1021/acsami.1c18818
Sn0.93Pb0.06Zn0.01Se1.00,473,532.62,656,0.591,0.000186097,0.155,https://doi.org/10.1021/acsami.1c20549
Sn0.96Pb0.03Zn0.01Se1.00,473,515.6,1137,0.6623,0.000302264,0.215870187,https://doi.org/10.1021/acsami.1c20549
Sn0.97Pb0.02Zn0.01Se1.00,473,507.09,1319,0.9477,0.000339168,0.169279804,https://doi.org/10.1021/acsami.1c20549
Sn0.98Pb0.01Zn0.01Se1.00,473,500,1560,0.9052,0.00039,0.203789218,https://doi.org/10.1021/acsami.1c20549
Sn0.90Pb0.09Zn0.01Se1.00,473,578.93,306,0.75,0.000102559,0.064680507,https://doi.org/10.1021/acsami.1c20549
Sn1.00Se1.00,473,539.36,600,1.2871,0.000174546,0.064144226,https://doi.org/10.1021/acsami.1c20549
Bi2.00Si2.00Te6.00,473,160.64,10694,0.7539,0.000275961,0.173139025,https://doi.org/10.1021/acsami.1c23351
Sb2.00Si2.00Te6.00,473,168.32,24312,0.75,0.000688798,0.434402193,https://doi.org/10.1021/acsami.1c23351
Cu2.00Zn0.20Fe0.80Sn1.00Se4.00,473,238.15,2835,1.2756,0.000160788,0.059621221,https://doi.org/10.1021/ic402455x
Cu2.00Zn0.40Fe0.60Sn1.00Se4.00,473,214.45,4302,1.4252,0.000197844,0.065661052,https://doi.org/10.1021/ic402455x
Cu2.00Zn0.60Fe0.40Sn1.00Se4.00,473,330.92,306.87,1.7598,3.36E-05,0.009032299,https://doi.org/10.1021/ic402455x
Cu2.00Zn0.80Fe0.20Sn1.00Se4.00,473,360.12,155.35,1.539,2.01E-05,0.006191962,https://doi.org/10.1021/ic402455x
Ca3.00Co2.00O6.00,473,213.6,111,6.71,5.06E-06,0.000356997,https://doi.org/10.1063/1.1622115
Tl2.00Ge1.00Te3.00,473,234.5,3030,0.27,0.0001635,0.291894357,https://doi.org/10.1063/1.2181427
Tl4.00Pb1.00Te3.00,473,95,27500,0.73,0.000248188,0.156,https://doi.org/10.1063/1.2181427
Tl4.00Sn1.00Te3.00,473,160,18200,0.45,0.0004635,0.48,https://doi.org/10.1063/1.2181427
Eu2.00Zn0.96Sb2.00,473,160,20850,0.497,0.00053376,0.507984869,https://doi.org/10.1073/pnas.1819157116
Eu2.00Zn0.98Sb2.00,473,197,13470,0.46,0.000522757,0.537530804,https://doi.org/10.1073/pnas.1819157116
Eu2.00Zn1.00Sb2.00,473,317,3027,0.4,0.00030418,0.35969309,https://doi.org/10.1073/pnas.1819157116
Sn1.00Se1.00,473,242.72,3015,1.0777,0.000177623,0.077958182,https://doi.org/10.1021/acsami.1c10081
Sn1.00Se0.90S0.10,473,261.32,2348,0.9246,0.0001385,0.0695,https://doi.org/10.1021/acsami.1c10081
Sn1.00Se0.80S0.20,473,273.27,1841,0.8672,0.000137479,0.074985894,https://doi.org/10.1021/acsami.1c10081
Sn1.00Se1.00,473,322.79,64.52,0.6044,6.72E-06,0.005261035,https://doi.org/10.1021/acsami.1c09208
Sn1.00Se1.00,473,308.82,48.39,0.6059,4.61E-06,0.003602688,https://doi.org/10.1021/acsami.1c09208
Ag8.00Si1.00Se6.00,473,-103.9,53237,0.52,0.000574705,0.522760141,https://doi.org/10.1021/acsami.0c15877
Ag8.00Si1.00Se6.00,473,-113.7,35006,0.441,0.000452547,0.485384573,https://doi.org/10.1021/acsami.0c15877
Ag8.00Si1.00Se6.00,473,-110.08,39318,0.4636,0.00047644,0.486100395,https://doi.org/10.1021/acsami.0c15877
Ag8.00Si1.00Se6.00,473,-118.7,32051,0.4208,0.000451589,0.507607969,https://doi.org/10.1021/acsami.0c15877
Mg2.00Zn0.96Sb2.00,473,244.74,5695,0.6545,0.000341117,0.246521686,https://doi.org/10.1021/acsami.0c09391
Mg2.00Zn0.98Sb2.00,473,283.55,5132,0.6711,0.000412616,0.290817042,https://doi.org/10.1021/acsami.0c09391
Mg2.00Zn1.00Sb2.00,473,150.33,1523,0.7405,3.44E-05,0.021985042,https://doi.org/10.1021/acsami.0c09391
Mg2.00Zn1.02Sb2.00,473,96.69,2052,0.7317,1.92E-05,0.012401339,https://doi.org/10.1021/acsami.0c09391
Mg2.00Zn1.04Sb2.00,473,131.58,1391,0.6444,2.41E-05,0.01767716,https://doi.org/10.1021/acsami.0c09391
Mg1.98Li0.02Zn0.98Sb2.00,473,110.58,67302,1.0579,0.000822965,0.367957505,https://doi.org/10.1021/acsami.0c09391
Mg1.98K0.02Zn0.98Sb2.00,473,254.5,7407,0.6344,0.000479753,0.357697483,https://doi.org/10.1021/acsami.0c09391
Mg1.98Ag0.02Zn0.98Sb2.00,473,133.33,41693,0.9404,0.000741172,0.372792721,https://doi.org/10.1021/acsami.0c09391
Mg1.96Li0.04Zn0.98Sb2.00,473,76.72,103280,1.2632,0.000607902,0.227626301,https://doi.org/10.1021/acsami.0c09391
Ba1.00Bi1.00Te2.95Se0.05,474,-185.3,7830,0.4142,0.000268852,0.307666951,https://doi.org/10.1021/acs.chemmater.7b04123
Ba1.00Bi1.00Te2.90Se0.10,474,-191,4245,0.396,0.000154862,0.185364936,https://doi.org/10.1021/acs.chemmater.7b04123
Ba1.00Bi1.00Te3.00,474,-170.45,9563,0.43425,0.000277836,0.303268066,https://doi.org/10.1021/acs.chemmater.7b04123
Ag8.00Sn0.40Ga0.60Se6.00,474,-442.9,295,0.274,5.79E-05,0.100106241,https://doi.org/10.1021/acsami.1c17548
Ag8.00Sn0.70Ga0.30Se6.00,474,-421.9,430,0.255,7.65E-05,0.142274041,https://doi.org/10.1021/acsami.1c17548
Zr1.00Ni1.00Sn1.00,474,-132.87,47448,3.744,0.000837668,0.106050881,https://doi.org/10.1021/acsami.1c05639
Ag2.00Se1.00,474,-94.33,126638,3.0293,0.001126844,0.162,https://doi.org/10.1021/acsami.1c08410
Nb1.00Co1.00Sn1.00,474,-208.7,53254,10.48,0.002319515,0.104909349,https://doi.org/10.1021/acsami.1c08127
Yb1.00Si2.00,475,-39.6,641000,9.933,0.001005191,0.048068611,10.1002/pssr.201700372
Cu1.00Ga0.97Mn0.03Te2.00,475,214,22149,3.652,0.001014336,0.131930288,10.1039/c6ta11120c
Cu1.00Ga0.98Mn0.02Te2.00,475,292.4,9342,3.957,0.00079872,0.095878705,10.1039/c6ta11120c
Cu1.00Ga0.99Mn0.01Te2.00,475,366.85,4825,2.957,0.000649343,0.104307767,10.1039/c6ta11120c
Zr1.00Ni1.00Pb1.00,475,-260.8,16570,5.768,0.001127036,0.092812408,https://doi.org/10.1021/acs.chemmater.6b04898
Zr1.00Ni1.00Pb0.92Sn0.60Bi0.02,475,-126.9,276964,5.8374,0.00446012,0.362928207,https://doi.org/10.1021/acs.chemmater.6b04898
Zr1.00Ni1.00Pb0.94Sn0.40Bi0.02,475,-115.61,293000,5.577,0.003916142,0.33354266,https://doi.org/10.1021/acs.chemmater.6b04898
Zr1.00Ni1.00Pb0.96Sn0.20Bi0.02,475,-110.9,351120,6.3415,0.004318358,0.32345977,https://doi.org/10.1021/acs.chemmater.6b04898
Zr1.00Ni1.00Pb0.98Bi0.01,475,-122.05,261850,8.361,0.003900571,0.221596824,https://doi.org/10.1021/acs.chemmater.6b04898
Zr1.00Ni1.00Pb0.98Bi0.02,475,-121.22,306000,8.59,0.004496452,0.248639676,https://doi.org/10.1021/acs.chemmater.6b04898
Zr1.00Ni1.00Pb0.99Bi0.01,475,-198,137000,7.5207,0.005370948,0.339223782,https://doi.org/10.1021/acs.chemmater.6b04898
Zr1.00Ni1.00Pb0.99Bi0.01,475,-209,101910,7.124,0.004451531,0.296810372,https://doi.org/10.1021/acs.chemmater.6b04898
Zr1.00Ni1.00Pb0.99Bi0.01,475,-160.3,171240,7.7355,0.004400198,0.270195109,https://doi.org/10.1021/acs.chemmater.6b04898
Zr1.00Ni1.00Pb0.90Sn0.80Bi0.02,475,-154.3,161842,5.87,0.003853214,0.311801785,https://doi.org/10.1021/acs.chemmater.6b04898
Zr1.00Ni1.00Sn0.98Bi0.02,475,-178.5,45700,7.8374,0.001456105,0.088249903,https://doi.org/10.1021/acs.chemmater.6b04898
Ag0.01Cu1.97S0.50Se0.50,475,120.74,10221,0.726,0.000149003,0.09748835,https://doi.org/10.1021/acsaem.1c03064
Ag0.02Cu1.96S0.50Se0.50,475,135.74,7279,0.6913,0.000187,0.128489802,https://doi.org/10.1021/acsaem.1c03064
Ag0.03Cu1.95S0.50Se0.50,475,166.23,6176,0.6717,0.000170658,0.0826,https://doi.org/10.1021/acsaem.1c03064
Cu1.95S0.50Se0.50,475,73.54,49010,1.2674,0.000265053,0.099337188,https://doi.org/10.1021/acsaem.1c03064
Cu1.98S0.50Se0.50,475,103.03,14926,0.7326,0.000158442,0.102730058,https://doi.org/10.1021/acsaem.1c03064
Cu1.99S0.50Se0.50,475,159.2,3564,0.552,9.03E-05,0.077728154,https://doi.org/10.1021/acsaem.1c03064
Cu2.00S0.50Se0.50,475,214.14,1634,0.5478,7.49E-05,0.064970952,https://doi.org/10.1021/acsaem.1c03064
Ge1.00Te1.00,475,52.67,396552,4.8542,0.001100086,0.107647197,https://doi.org/10.1021/acsami.1c11599
Ge0.89In0.05Pb0.06Te1.00,475,185.88,48117,1.1933,0.001662508,0.661771163,https://doi.org/10.1021/acsami.1c11599
Ge0.87In0.05Pb0.08Te1.00,475,227.56,39860,1.113,0.002064092,0.880901987,https://doi.org/10.1021/acsami.1c11599
Ge0.85In0.05Pb0.10Te1.00,475,248.4,27913,0.9533,0.001722304,0.858170764,https://doi.org/10.1021/acsami.1c11599
Ge0.83In0.05Pb0.12Te1.00,475,253.78,18489,0.9533,0.001190771,0.593324422,https://doi.org/10.1021/acsami.1c11599
Cd2.00Cu3.00In3.00Te8.00,477,184.2,13000,1.29,0.000441085,0.16309899,https://doi.org/10.1021/acsaem.9b02004
Ag8.00Sn0.50Ga0.50Se6.00,477,-435.28,298,0.247766465,5.65E-05,0.1087,https://doi.org/10.1021/acsami.1c17548
Ag0.98Nb0.02Bi1.00Se2.00,478,-164.7,11852,0.666,0.000321498,0.230745111,10.1021/ja312474n
Ag1.00Bi1.00Se2.00,478,-188,5664,0.635,0.000200188,0.150693012,10.1021/ja312474n
Co0.95Ni0.05Ge1.00Te1.00,478,-66.38,144444,5.2519,0.000636464,0.057927589,https://doi.org/10.1021/acs.inorgchem.1c01538
Co0.97Ni0.03Ge1.00Te1.00,478,-109.15,76064,4.9466,0.000906205,0.087568466,https://doi.org/10.1021/acs.inorgchem.1c01538
Co0.99Ni0.01Ge1.00Te1.00,478,-142.34,48138,5.1136,0.000975308,0.091168143,https://doi.org/10.1021/acs.inorgchem.1c01538
Co1.00Ge1.00Te1.00,478,-171.1,6120,6.4545,0.000179164,0.013268344,https://doi.org/10.1021/acs.inorgchem.1c01538
Ag1.00Bi0.85Nb0.15Sb0.30Se2.00,478,-276,2239,0.631990346,0.000170558,0.129,https://doi.org/10.1021/acs.inorgchem.9b01038
Ag1.00Bi0.85Nb0.15Sb0.10Se2.00,478,-141,19638,0.643524935,0.000390423,0.29,https://doi.org/10.1021/acs.inorgchem.9b01038
Ag1.00Bi0.85Pb0.15Sb0.30Se2.00,478,421.62,766,0.475092864,0.000136167,0.137,https://doi.org/10.1021/acs.inorgchem.9b01038
Ag1.00Bi0.85Pb0.15Sb0.10Se2.00,478,437.5,500,0.507613113,9.57E-05,0.09012,https://doi.org/10.1021/acs.inorgchem.9b01038
Ag1.00Bi0.80Nb0.20Sb0.30Se2.00,478,-225,2818,0.49307359,0.000142661,0.1383,https://doi.org/10.1021/acs.inorgchem.9b01038
Ag1.00Bi0.80Nb0.20Sb0.10Se2.00,478,-142,20706,0.628971146,0.000417516,0.3173,https://doi.org/10.1021/acs.inorgchem.9b01038
Ag1.00Bi0.80Pb0.20Sb0.30Se2.00,478,291.8,1778,2.341918347,0.000151392,0.0309,https://doi.org/10.1021/acs.inorgchem.9b01038
Ag1.00Bi0.80Pb0.20Sb0.10Se2.00,478,219.44,681,0.507280442,3.28E-05,0.0309,https://doi.org/10.1021/acs.inorgchem.9b01038
Ag1.00Bi0.90Nb0.10Sb0.30Se2.00,478,-263,2089,0.539594934,0.000144494,0.128,https://doi.org/10.1021/acs.inorgchem.9b01038
Ag1.00Bi0.90Pb0.10Sb0.30Se2.00,478,413.5,1059,0.63734578,0.00018107,0.1358,https://doi.org/10.1021/acs.inorgchem.9b01038
Ag1.00Bi0.90Pb0.10Sb0.10Se2.00,478,444.44,1000,0.534945409,0.000197527,0.1765,https://doi.org/10.1021/acs.inorgchem.9b01038
Ag1.00Bi0.70Sb0.30Se2.00,478,-327.78,1125,0.454926881,0.00012087,0.127,https://doi.org/10.1021/acs.inorgchem.9b01038
Ag1.00Bi0.90Sb0.10Se2.00,478,-152.78,20535,0.47465528,0.000479322,0.4827,https://doi.org/10.1021/acs.inorgchem.9b01038
Bi2.00Te3.00,478,-127.73,22792,0.9089,0.00037185,0.195560011,https://doi.org/10.1021/acsami.1c00355
Bi1.94Nb0.06Te3.00,478,-115.07,63529,0.8521,0.000841194,0.47188218,https://doi.org/10.1021/acsami.1c00355
Bi1.92Nb0.08Te3.00,478,-120.53,104026,0.7935,0.001511236,0.910360023,https://doi.org/10.1021/acsami.1c00355
Bi1.90Nb0.10Te3.00,478,-117.7,60000,0.7615,0.000831197,0.521749648,https://doi.org/10.1021/acsami.1c00355
Cu3.00Sn1.00S40.90Ga2.00Te30.11,479,75.25,141561,2.6374,0.000801598,0.145584836,https://doi.org/10.1021/acs.inorgchem.1c01028
Cu3.00Sn1.00S40.91Ga2.00Te30.09,479,71.72,150000,3.429,0.000771564,0.107780414,https://doi.org/10.1021/acs.inorgchem.1c01028
Ag0.94Cu1.00Se1.00,479,208.28,16210,0.563,0.000703199,0.6136,https://doi.org/10.1021/ic502102e
Ag0.97Cu1.00Se1.00,479,190.44,14569,0.632,0.00052838,0.400464962,https://doi.org/10.1021/ic502102e
Ag1.00Cu1.00Se1.00,479,206.37,11232,0.483,0.000478355,0.474393365,https://doi.org/10.1021/ic502102e
In3.94Pb0.06Se3.00,480,-256,8700,1.22,0.000570163,0.224326505,10.1002/adma.201302038