Formula,temperature(K),seebeck_coefficient(μV/K),electrical_conductivity(S/m),thermal_conductivity(W/mK),power_factor(W/mK2),ZT,reference
Ag0.01Sn0.99Se0.80S0.20,322,313.68,1031,0.1986,0.000101445,0.16447843,https://doi.org/10.1021/acs.chemmater.7b01612
Ag0.01Sn0.99Se0.90S0.10,322,300.85,1505,0.3315,0.000136219,0.132314936,https://doi.org/10.1021/acs.chemmater.7b01612
Ba1.00Bi1.00Te2.95Se0.05,322,-152,6210,0.437,0.000143476,0.10571904,https://doi.org/10.1021/acs.chemmater.7b04123
Ba1.00Bi1.00Te2.90Se0.10,322,-154.6,4240,0.413,0.000101341,0.079011563,https://doi.org/10.1021/acs.chemmater.7b04123
Tl8.95Bi1.05Te6.00,322,-220,170,0.3375,8.23E-06,0.007850121,https://doi.org/10.1021/cm402593f
Tl8.99Bi1.01Te6.00,322,243,8350,0.396,0.000493059,0.400921834,https://doi.org/10.1021/cm402593f
In4.00Se2.32Cl0.03,323,-213.1,31000,1.2467,0.00140776,0.3676,10.1002/adma.201004739
In4.00Se2.67Cl0.03,323,-103.3,105263,0.88,0.00112325,0.412283768,10.1002/adma.201004739
Cu10.50Ni0.50Zn1.00Sb4.00S13.00,323,168.2,6860,0.398,0.000194078,0.157505437,10.1021/cm502570b
Cu10.50Ni1.50Sb4.00S13.00,323,136.4,16380,0.6315,0.000304749,0.155873327,10.1021/cm502570b
Cu10.50Ni1.00Zn0.50Sb4.00S13.00,323,160,14530,0.5,0.000371968,0.240291328,10.1021/cm502570b
Cu2.00Sn0.80Zn0.20S3.00,323,44,137534,2.575,0.000266266,0.033399558,10.1038/srep32501
Cu2.00Sn0.95Zn0.05S3.00,323,98.5,18500,1.588,0.000179492,0.036508687,10.1038/srep32501
Cu2.00Sn0.90Zn0.10S3.00,323,70.7,55616,1.878,0.000277996,0.047812947,10.1038/srep32501
Cu2.00Sn1.00S3.00,323,283,132,2.38,1.06E-05,0.001434737,10.1038/srep32501
In4.00Pb0.01Sn0.03Se2.90Cl0.02,323,-205,7453,0.9462,0.000313212,0.10691987,10.1039/c4dt03432e
In4.00Pb0.01Sn0.03Se2.90Cl0.04,323,-197.8,6700,0.911,0.000262136,0.092941895,10.1039/c4dt03432e
In4.00Pb0.01Sn0.03Se2.90Cl0.06,323,-199.2,3050,0.944,0.000121026,0.038,10.1039/c4dt03432e
Bi1.00Cu0.90Se1.00O1.00,323,166,43,1.19,1.18E-06,0.000321618,https://doi.org/10.1021/ja2091195
Bi1.00Cu0.93Se1.00O1.00,323,242.45,2788,1.4,0.000163884,0.037810431,https://doi.org/10.1021/ja2091195
Bi1.00Cu0.97Se1.00O1.00,323,167.59,2330,0.787,6.54E-05,0.026858386,https://doi.org/10.1021/ja2091195
Bi1.00Cu1.00Se1.00O1.00,323,354,114,0.606,1.43E-05,0.007614498,https://doi.org/10.1021/ja2091195
Ag1.00Bi1.00Se2.00,323,-133,18550,0.605,0.000328131,0.175183962,10.1039/c7dt04821a
Ge0.99Te1.00,323,40.54,699510,5.7,0.001149639,0.065146199,10.1039/C9EE00317G
Ge1.04Te1.00,323,72,463000,5.24,0.002400192,0.17,10.1039/C9EE00317G
Ge1.00Te1.00,323,49,586777,5.7,0.001408852,0.079834923,10.1039/C9EE00317G
Cu2.82Ag0.18Sb1.00Se4.00,323,336,10316,1.54,0.001164635,0.25,10.1039/c9ta05115e
Cu2.88Ag0.12Sb1.00Se4.00,323,344,12645,1.87,0.001496359,0.258461961,10.1039/c9ta05115e
Cu2.94Ag0.06Sb1.00Se4.00,323,407,6275,2.05,0.001039447,0.163776358,10.1039/c9ta05115e
Cu3.00Sb1.00Se4.00,323,497,2394,2.42,0.00059134,0.078926725,10.1039/c9ta05115e
Tl1.00Cr5.00Se8.00,323,226,6670,0.706,0.000340677,0.155862104,dx.doi.org/10.1021/cm400365q
Bi0.92Ag0.08Cu1.00Se1.00O1.00,323,184.7,2420,0.5263,8.26E-05,0.050666197,http://dx.doi.org/10.1016/j.jeurceramsoc.2014.09.015
Bi0.94Ag0.06Cu1.00Se1.00O1.00,323,223,1662,0.552,8.26E-05,0.048361993,http://dx.doi.org/10.1016/j.jeurceramsoc.2014.09.015
Bi0.96Ag0.04Cu1.00Se1.00O1.00,323,229,1623,0.575,8.51E-05,0.047810597,http://dx.doi.org/10.1016/j.jeurceramsoc.2014.09.015
Bi0.90Ag0.10Cu1.00Se1.00O1.00,323,159.8,2600,0.56,6.64E-05,0.03829494,http://dx.doi.org/10.1016/j.jeurceramsoc.2014.09.015
Bi1.00Cu1.00Se1.00O1.00,323,487.6,536,0.812,0.000127436,0.050691913,http://dx.doi.org/10.1016/j.jeurceramsoc.2014.09.015
Yb10.00La1.00Cd1.00Sb9.00,323,31.58,28782,0.8866,2.87E-05,0.010457311,https://doi.org/10.1002/asia.201200827
Bi2.00S2.79Se0.21,323,-508,444,0.716,0.00011458,0.05168921,https://doi.org/10.1007/s11467-018-0845-4
Bi2.00S2.85Se0.15,323,-439,938,0.77,0.000180772,0.075830457,https://doi.org/10.1007/s11467-018-0845-4
Bi2.00S2.91Se0.09,323,-461,623,0.8147,0.000132401,0.052492191,https://doi.org/10.1007/s11467-018-0845-4
Bi2.00S3.00,323,-664.1,4,0.71,1.76E-06,0.000802548,https://doi.org/10.1007/s11467-018-0845-4
Cu3.00Sb0.90Ge0.10S4.00,323,91.2,123060,3.995223755,0.001023544,0.08275,https://doi.org/10.1007/s11664-014-3064-y
Cu3.00Sb0.92Ge0.08S4.00,323,105.3,100816,3.882449169,0.001117857,0.093,https://doi.org/10.1007/s11664-014-3064-y
Cu3.00Sb0.94Ge0.06S4.00,323,132.45,58163,3.443826859,0.001020354,0.0957,https://doi.org/10.1007/s11664-014-3064-y
Cu3.00Sb0.98Ge0.02S4.00,323,192,22857,3.427707112,0.0008426,0.0794,https://doi.org/10.1007/s11664-014-3064-y
Cu3.00Sb1.00S4.00,323,497,1650,4.205860912,0.000407565,0.0313,https://doi.org/10.1007/s11664-014-3064-y
Bi2.00Te1.95Se1.05,323,-167.4,52250,0.98,0.001464189,0.503,https://doi.org/10.1007/s11664-020-08258-9
Bi2.00Te2.01Se0.99,323,-148.7,60000,1.053,0.001335,0.42,https://doi.org/10.1007/s11664-020-08258-9
Bi2.00Te2.10Se0.90,323,-151.5,65612,1.149,0.001505943,0.452,https://doi.org/10.1007/s11664-020-08258-9
Bi2.00Te2.55Se0.45,323,-135.14,88489,1.1965,0.001616059,0.446,https://doi.org/10.1007/s11664-020-08258-9
Bi2.00Te2.70Se0.30,323,-132.2,107200,1.33,0.001873517,0.46,https://doi.org/10.1007/s11664-020-08258-9
Mg2.98Na0.03Sb2.00,323,75,36600,2.01,0.000205875,0.033083396,https://doi.org/10.1016/j.actamat.2015.04.023
Mg2.99Na0.01Sb2.00,323,100,24000,1.73,0.00024,0.044809249,https://doi.org/10.1016/j.actamat.2015.04.023
Mg2.99Na0.01Sb2.00,323,123.48,13097,1.514,0.000199694,0.04260315,https://doi.org/10.1016/j.actamat.2015.04.023
Zn0.95In0.05Sb3.00,323,146.3,26580,0.862,0.00056891,0.213176283,https://doi.org/10.1016/j.intermet.2004.02.030
Zn0.98In0.02Sb3.00,323,135,38540,0.842,0.000702392,0.26944472,https://doi.org/10.1016/j.intermet.2004.02.030
Zn0.90In0.14Sb3.00,323,156.3,13216,0.887,0.000322863,0.1175701,https://doi.org/10.1016/j.intermet.2004.02.030
Sn1.00Se1.00,323,357,117,0.88,1.49E-05,0.006,https://doi.org/10.1016/j.jallcom.2016.01.190
Sn0.87Mn0.10Bi0.03Te1.00,323,60,265500,4.237,0.0009558,0.072863677,https://doi.org/10.1016/j.jmst.2020.12.063
Sn0.91Mn0.08Bi0.01Te1.00,323,51,322000,4.31,0.000837522,0.06276557,https://doi.org/10.1016/j.jmst.2020.12.063
Sn1.00Te1.00,323,30.4,575600,10.29,0.000531946,0.01669764,https://doi.org/10.1016/j.jmst.2020.12.063
Cu3.00Sb1.00In0.00Se4.00,323,230,5800,2.522,0.00030682,0.039295345,https://doi.org/10.1016/j.matdes.2016.03.001
Cu3.00Sb1.00In0.00Se4.00,323,252,5600,2.48,0.00037,0.05,https://doi.org/10.1016/j.matdes.2016.03.001
Cu3.00Sb1.00In0.00Se4.00,323,270,4255,2.403,0.00031019,0.041694219,https://doi.org/10.1016/j.matdes.2016.03.001
Cu3.00Sb1.00Se4.00,323,387,2310,2.796,0.000345966,0.03996679,https://doi.org/10.1016/j.matdes.2016.03.001
Sn0.97Ce0.03Te1.00,323,47,353200,4.175,0.000780219,0.060361838,https://doi.org/10.1016/j.mtphys.2019.100156
Sn0.98Ce0.02Te1.00,323,24.86,462025,5,0.000285541,0.018445917,https://doi.org/10.1016/j.mtphys.2019.100156
Sn0.99Ce0.01Te1.00,323,20.3,560700,6.152,0.000231059,0.012131341,https://doi.org/10.1016/j.mtphys.2019.100156
Co1.00Sb3.00,323,-224,3571,6.9,0.000179178,0.008387631,https://doi.org/10.1016/S0925-8388(00)01275-5
Ca3.20Yb1.65Pr0.15Al2.00Sb6.00,323,46.4,2570,1.47,5.53E-06,0.001215778,https://doi.org/10.1021/acs.chemmater.1c01318
Ca3.30Yb1.50Sm0.20Al2.00Sb6.00,323,56.2,7960,1.21,2.51E-05,0.006711241,https://doi.org/10.1021/acs.chemmater.1c01318
Ca3.30Yb1.50Sm0.20Al2.00Sb6.00,323,-79.17,146,0.96875,9.15E-07,0.000305116,https://doi.org/10.1021/acs.chemmater.1c01318
Ca3.46Yb1.35Pr0.19Al2.00Sb6.00,323,-119.64,271,1.6473,3.88E-06,0.000760592,https://doi.org/10.1021/acs.chemmater.1c01318
Ba1.00Bi1.00Te3.00,323,-140,9749,0.461,0.00019108,0.133880627,https://doi.org/10.1021/acs.chemmater.7b04123
Cu2.00Zn1.00Sn0.93Ag0.07Se4.00,323,45.07,79487,3.936,0.000161462,0.013250085,https://doi.org/10.1021/acs.inorgchem.1c00079
Cu2.00Zn1.00Sn0.95Ag0.05Se4.00,323,34.37,258333,4.2105,0.000305168,0.023410344,https://doi.org/10.1021/acs.inorgchem.1c00079
Cu2.00Zn1.00Sn0.98Ag0.02Se4.00,323,67.61,34910,4.3626,0.000159578,0.011814867,https://doi.org/10.1021/acs.inorgchem.1c00079
Cu2.00Zn1.00Sn1.00Se4.00,323,105.92,21008,4.567,0.00023569,0.0166691,https://doi.org/10.1021/acs.inorgchem.1c00079
Pb6.00Bi2.00Se9.00,323,-75,33154,1.125,0.000186491,0.05354371,https://doi.org/10.1021/acs.inorgchem.6b02118
As2.00Te1.50Se1.50,323,575.51,7.8,0.3472,2.58E-06,0.002403384,https://doi.org/10.1021/acs.inorgchem.6b02930
As2.00Te2.30Se0.70,323,339.8,86.6,0.5167,1.00E-05,0.006250701,https://doi.org/10.1021/acs.inorgchem.6b02930
As2.00Te2.60Se0.40,323,210,940,0.59,4.15E-05,0.02,https://doi.org/10.1021/acs.inorgchem.6b02930
As2.00Te2.80Se0.20,323,192.08,921.06,0.6193,3.40E-05,0.01772367,https://doi.org/10.1021/acs.inorgchem.6b02930
As2.00Te2.90Se0.10,323,160.89,690.69,0.68,1.79E-05,0.0196,https://doi.org/10.1021/acs.inorgchem.6b02930
As2.00Te2.00Se1.00,323,242.42,9.21,0.4597,5.41E-07,0.000380298,https://doi.org/10.1021/acs.inorgchem.6b02930
As2.00Te3.00,323,79.21,309.79,0.7962,1.94E-06,0.000788511,https://doi.org/10.1021/acs.inorgchem.6b02930
Ba0.95K0.05Zn2.00As2.00,323,31,213333,3.733,0.000205013,0.01773887,https://doi.org/10.1021/acs.inorgchem.7b00232
Ba0.96K0.04Zn2.00As2.00,323,45.06,145455,2.95,0.000295332,0.03233639,https://doi.org/10.1021/acs.inorgchem.7b00232
Ba0.97K0.03Zn2.00As2.00,323,47.53,164103,3.3714,0.000370725,0.035517664,https://doi.org/10.1021/acs.inorgchem.7b00232
Ba0.98K0.02Zn2.00As2.00,323,76.54,139130,2.844,0.000815075,0.092570078,https://doi.org/10.1021/acs.inorgchem.7b00232
Ba0.99K0.01Zn2.00As2.00,323,108.7,47761,2.3972,0.000564329,0.076038012,https://doi.org/10.1021/acs.inorgchem.7b00232
Ba0.90K0.10Zn2.00As2.00,323,27.16,213333,3.9248,0.000157368,0.012950978,https://doi.org/10.1021/acs.inorgchem.7b00232
Ba1.00Zn2.00As2.00,323,203,6942,1.8794,0.000274,0.049165446,https://doi.org/10.1021/acs.inorgchem.7b00232
Li1.01Co0.85Ni0.15O2.00,323,244.5,0.03836,0.3158,2.29E-09,2.35E-06,https://doi.org/10.1021/acs.inorgchem.7b00476
Li1.04Co0.85Ni0.15O2.00,323,218,0.09114,1.915,4.33E-09,7.31E-07,https://doi.org/10.1021/acs.inorgchem.7b00476
Li1.10Co0.85Ni0.15O2.00,323,146,0.7809,1.9393,1.66E-08,2.77E-06,https://doi.org/10.1021/acs.inorgchem.7b00476
Li1.00Co0.85Ni0.15O2.00,323,200,0.03162,1.6932,1.26E-09,2.41E-07,https://doi.org/10.1021/acs.inorgchem.7b00476
Li1.00Co0.96Ni0.04O2.00,323,390.34,0.0004259,2.0341,6.49E-11,1.03E-08,https://doi.org/10.1021/acs.inorgchem.7b00476
Li1.00Co0.98Ni0.02O2.00,323,342.07,0.0009055,2.25,1.06E-10,1.52E-08,https://doi.org/10.1021/acs.inorgchem.7b00476
Sn1.03Se0.08Te0.92,323,12.63,557018,6.308,8.89E-05,0.004549742,https://doi.org/10.1021/acsaem.1c02442
Sn1.03Se0.12Te0.86Br0.01,323,18.27,492105,4.5849,0.000176,0.011571976,https://doi.org/10.1021/acsaem.1c02442
Sn1.03Se0.12Te0.88Br0.01,323,21.2,561404,4.962,0.000252317,0.016424531,https://doi.org/10.1021/acsaem.1c02442
Sn1.03Se0.12Te0.87Br0.01,323,20.75,609649,4.61,0.000262492,0.018391522,https://doi.org/10.1021/acsaem.1c02442
Sn1.03Se0.12Te0.88,323,13.53,528947,5.1635,9.68E-05,0.006057119,https://doi.org/10.1021/acsaem.1c02442
Sn1.03Se0.15Te0.85,323,10.83,517391,4.874,6.07E-05,0.004021544,https://doi.org/10.1021/acsaem.1c02442
Sn1.03Te1.00,323,14.2,634211,9.176,0.000127882,0.004501524,https://doi.org/10.1021/acsaem.1c02442
Sn1.00Te13.00Sb2.00,323,74.75,192500,2.37,0.001075606,0.146590999,https://doi.org/10.1021/acsaem.1c03231
Sn1.00Te15.00Sb2.00,323,64.14,224000,2.91,0.000921522,0.102285827,https://doi.org/10.1021/acsaem.1c03231
Sn1.00Te18.00Sb2.00,323,55.34,293376,3.54,0.000898469,0.081978913,https://doi.org/10.1021/acsaem.1c03231
Sn1.00Te23.00Sb2.00,323,47.33,296943,4.24,0.000665191,0.050673718,https://doi.org/10.1021/acsaem.1c03231
Sn1.00Te28.00Sb2.00,323,44.48,352625,4.28,0.000697658,0.052650368,https://doi.org/10.1021/acsaem.1c03231
Sn1.00Te43.00Sb2.00,323,35.43,392357,5.5347,0.00049252,0.028743003,https://doi.org/10.1021/acsaem.1c03231
Sn1.00Te11.00Sb2.00,323,89.5,147875,2.05,0.001184516,0.186633452,https://doi.org/10.1021/acsaem.1c03231
Sn1.00Te1.00,323,7.7586,716051,8.592,4.31E-05,0.001620388,https://doi.org/10.1021/acsaem.1c03231
Al0.01Sb0.10Ge0.90Te1.00,323,137.1,60964,1.5269,0.001145904,0.242404284,https://doi.org/10.1021/acsami.1c12282
Al0.01Sb0.10Ge0.89Te1.00,323,142.74,58474,1.4282,0.001191391,0.269443482,https://doi.org/10.1021/acsami.1c12282
Al0.01Ge0.99Te1.00,323,34.29,639286,6.7778,0.000751675,0.035821514,https://doi.org/10.1021/acsami.1c12282
Al0.01Sb0.10Ge0.89Te1.00,323,151.34,54779,1.3795,0.001254647,0.2372,https://doi.org/10.1021/acsami.1c12282
Al0.02Ge0.98Te1.00,323,35.89,583929,6.6263,0.000752154,0.036663877,https://doi.org/10.1021/acsami.1c12282
Al0.03Ge0.97Te1.00,323,37.5,555357,6.051,0.000780971,0.041687913,https://doi.org/10.1021/acsami.1c12282
Ge1.00Te1.00,323,31.07,712500,6.515,0.000687808,0.034100086,https://doi.org/10.1021/acsami.1c12282
Sb0.05Ge0.95Te1.00,323,66.67,319444,3.691,0.001419893,0.124255071,https://doi.org/10.1021/acsami.1c12282
Sb0.15Ge0.85Te1.00,323,159.26,22018,1.2,0.000558459,0.150318546,https://doi.org/10.1021/acsami.1c12282
Sb0.10Ge0.90Te1.00,323,138.5,63300,1.564,0.001214236,0.24,https://doi.org/10.1021/acsami.1c12282
Bi0.42Sb1.58Te3.00,323,224.5,51064,0.934,0.002573638,0.890026972,https://doi.org/10.1021/acsami.1c13372
Ti1.00Ni1.00Sn1.00,323,-82.8,60470,4.3804,0.000414573,0.030569575,https://doi.org/10.1021/acsami.1c14723
Ti1.00Zr0.01Ni1.00Sn1.00,323,-137.05,39385,2.9344,0.000739757,0.081427694,https://doi.org/10.1021/acsami.1c14723
Ti1.00Zr0.01Ni1.00Sn1.00,323,-140,34615,2.568,0.000678454,0.085335141,https://doi.org/10.1021/acsami.1c14723
Ti1.00Zr0.03Ni1.00Sn1.00,323,-155.66,27385,3.082,0.00066354,0.06954032,https://doi.org/10.1021/acsami.1c14723
Ge1.00Te0.70Ag1.00Sn1.00Se20.30,323,29.81,68387,1.2308,6.08E-05,0.015948232,https://doi.org/10.1021/acsami.1c14801
Ge1.00Te0.80Ag1.00Sn1.00Se20.20,323,30.43,223226,2.0288,0.000206704,0.032908794,https://doi.org/10.1021/acsami.1c14801
Ge1.00Te0.90Ag1.00Sn1.00Se20.10,323,34.7,301935,2.7115,0.000363557,0.04330772,https://doi.org/10.1021/acsami.1c14801
Ge0.55Sb0.25Te0.80Ag1.00Sn1.00Se20.20,323,167.7,34839,0.757,0.001,0.42668428,https://doi.org/10.1021/acsami.1c14801
Ge0.58Sb0.22Te0.80Ag1.00Sn1.00Se20.20,323,151.6,43900,0.74,0.001008934,0.440386224,https://doi.org/10.1021/acsami.1c14801
Ge0.60Sb0.20Te0.80Ag1.00Sn1.00Se20.20,323,137.27,56774,0.8269,0.001069795,0.417878754,https://doi.org/10.1021/acsami.1c14801
Ge1.00Te1.00,323,39.75,681529,5.8846,0.001076858,0.059107716,https://doi.org/10.1021/acsami.1c14801
Sn1.00Te21.00Cu1.00Sb1.00,323,40.11,299153,3.5155,0.000481281,0.044219528,https://doi.org/10.1021/acsami.1c15614
Sn1.00Te21.00Cu1.00Sb1.00,323,36,347600,3.925,0.00045049,0.037072138,https://doi.org/10.1021/acsami.1c15614
Cu0.00Pb1.00Te1.03Mn1.00,323,-227.02,46069,1.8133,0.002374308,0.422931356,https://doi.org/10.1021/acsami.1c17254
Cu0.00Pb1.00Te1.03Mn1.00,323,-218.95,49517,1.7893,0.002373801,0.428512588,https://doi.org/10.1021/acsami.1c17254
Cu0.00Pb1.00Te1.03Mn1.00,323,-225.44,56000,1.7707,0.002846099,0.519167519,https://doi.org/10.1021/acsami.1c17254
Cu0.00Pb1.00Te1.03Mn1.00,323,-203.51,58483,1.7947,0.002422151,0.435925035,https://doi.org/10.1021/acsami.1c17254
Cu0.01Pb0.99Te1.03Mn1.00,323,-177.02,97810,1.93,0.003064982,0.512947769,https://doi.org/10.1021/acsami.1c17254
Pb1.00Te1.03Mn1.00,323,-165.09,103699,2.0853,0.002826286,0.437774119,https://doi.org/10.1021/acsami.1c17254
Tl2.00Ge1.00Te3.00,323,201,2850,0.311,0.000115143,0.117,https://doi.org/10.1063/1.2181427
Tl4.00Pb1.00Te3.00,323,52,81800,1.2,0.00017,0.0609,https://doi.org/10.1063/1.2181427
Tl4.00Sn1.00Te3.00,323,126,28700,0.52,0.000455641,0.272,https://doi.org/10.1063/1.2181427
Mo3.00Sb7.00I0.75,323,17.4,624500,5,0.000189074,0.012214156,https://doi.org/10.1063/1.5144156
Mo3.00Sb7.00I1.25,323,21.2,571800,4.704,0.00025699,0.017646195,https://doi.org/10.1063/1.5144156
Mo3.00Sb7.00I1.50,323,6.6,497000,4.31,2.16E-05,0.001622443,https://doi.org/10.1063/1.5144156
Pb1.00Te1.00,323,-230.71,22500,2.165,0.00119761,0.183,https://doi.org/10.1021/acsami.1c14518
Pb0.97Zn0.04Te1.00,323,-150,130530,2.753,0.002936925,0.344579286,https://doi.org/10.1021/acsami.1c14518
Sn1.00Te1.00,323,36.93,761798,8.1348,0.001038959,0.041252862,https://doi.org/10.1021/acsami.0c09781
Sn0.98In0.01Te1.00,323,53.28,559551,6.3778,0.00158843,0.080445126,https://doi.org/10.1021/acsami.0c09781
Sn0.98In0.01Te0.95Ag1.00Cl0.05,323,50.95,577528,5.5667,0.001499206,0.086989358,https://doi.org/10.1021/acsami.0c09781
Sn0.98In0.01Te0.90Ag1.00Cl0.10,323,57.37,464045,3.8889,0.001527319,0.126854402,https://doi.org/10.1021/acsami.0c09781
Sn0.98In0.01Te0.85Ag1.00Cl0.15,323,58.53,420225,4,0.00143959,0.116246923,https://doi.org/10.1021/acsami.0c09781
Cu2.00Sn1.00Se3.00,323,89.29,13265,2.8264,0.000105758,0.012085978,https://doi.org/10.1021/acsami.0c04298
Cu2.00Sn0.95Fe0.05Se3.00,323,55.48,115306,3.428,0.000354915,0.033441559,https://doi.org/10.1021/acsami.0c04298
K0.97Ba0.03Ga1.00Sb4.00,324,-134.7,23542,1.125170781,0.000427148,0.123,https://doi.org/10.1021/acs.chemmater.7b01217
K0.98Ba0.01Ga1.00Sb4.00,324,-145.92,24541,1.17981797,0.000522543,0.1435,https://doi.org/10.1021/acs.chemmater.7b01217
K0.98Ba0.02Ga1.00Sb4.00,324,-123.13,27342,1.25170886,0.000414532,0.1073,https://doi.org/10.1021/acs.chemmater.7b01217
K0.99Ba0.01Ga1.00Sb4.00,324,-183,1633,0.872845418,5.47E-05,0.0203,https://doi.org/10.1021/acs.chemmater.7b01217
K0.99Ba0.01Ga1.00Sb4.00,324,-143.2,11614,1.119937137,0.000238159,0.0689,https://doi.org/10.1021/acs.chemmater.7b01217
Ag3.00Rb1.00Mo9.00Se11.00,324,71.15,4267,0.6805,2.16E-05,0.010284646,https://doi.org/10.1021/acs.inorgchem.7b01200
Sn1.00Te21.00Cu1.00Sb1.00,324,42.58,278383,3.3913,0.000504724,0.048220624,https://doi.org/10.1021/acsami.1c15614
Cu12.00Sb4.00S13.00,324,73.68,103319,1.5105,0.000560892,0.120310549,https://doi.org/10.1021/acsami.1c03493
Ge9.00Sb2.00Te12.00,324,53.25,229091,2.899,0.000649602,0.072601241,https://doi.org/10.1021/acsami.0c02155
Yb14.00Mn1.00Sb11.00,325,53,47966,1,0.000134736,0.043789361,10.1007/s11664-010-1149-9
Cu1.00Ga0.97Mn0.03Te2.00,325,172,25200,6.142,0.000745517,0.039448544,10.1039/c6ta11120c
Cu1.00Ga0.99Mn0.01Te2.00,325,332,6053,5.383,0.000667186,0.040281517,10.1039/c6ta11120c
Cu1.00Ga1.00Te2.00,325,364,2300,6.9645,0.000304741,0.0142208,10.1039/c6ta11120c
Sn1.00Te21.00Cu1.00Sb1.00,325,35.99,347593,3.9379,0.00045023,0.037158091,https://doi.org/10.1021/acsami.1c15614
Tl9.00Bi0.95Te6.00,325,140,37455,0.592,0.000734118,0.403020861,https://doi.org/10.1021/cm402593f
Tl9.00Bi0.96Te6.00,325,148.4,36000,0.65,0.000792812,0.39640608,https://doi.org/10.1021/cm402593f
Tl9.00Bi0.97Te6.00,325,152.48,34090,0.59,0.000792598,0.436600388,https://doi.org/10.1021/cm402593f
Tl9.00Bi0.98Te6.00,325,164.46,25800,0.538,0.000697815,0.421542496,https://doi.org/10.1021/cm402593f
Tl9.00Bi0.99Te6.00,325,183.47,24636,0.486,0.000829278,0.554558555,https://doi.org/10.1021/cm402593f
Tl9.00Bi1.00Te6.00,325,200,18091,5,0.00072364,0.0470366,https://doi.org/10.1021/cm402593f
Tl9.00Sb0.99Te6.00,325,122,44770,0.71,0.000666357,0.305022424,https://doi.org/10.1021/cm402593f
Cu7.00P1.00Se6.00,325,132.74,507.3,0.249,8.94E-06,0.01166682,https://doi.org/10.1021/acsami.1c11193
Cu7.00P1.00S0.25Se0.76,325,215.98,2308,0.2686,0.000107662,0.130268745,https://doi.org/10.1021/acsami.1c11193
Cu7.00P1.00S0.50Se0.56,325,256.21,1000,0.2529,6.56E-05,0.08435808,https://doi.org/10.1021/acsami.1c11193
Cu7.00P1.00S0.55Se0.46,325,283.43,398,0.2373,3.20E-05,0.043788526,https://doi.org/10.1021/acsami.1c11193
Cu7.00P1.00S0.60Se0.46,325,288.7,379,0.22,3.16E-05,0.046665235,https://doi.org/10.1021/acsami.1c11193
Cu7.00P1.00S0.65Se0.36,325,253.25,223,0.2373,1.43E-05,0.019587968,https://doi.org/10.1021/acsami.1c11193
Cu7.00P1.00S0.75Se0.26,325,402.96,16.44,0.2392,2.67E-06,0.003627003,https://doi.org/10.1021/acsami.1c11193
Cu7.00P1.00S6.00,325,97.62,2.34,0.2333,2.23E-08,3.11E-05,https://doi.org/10.1021/acsami.1c11193
Ge1.00Te1.00,325,30,718750,7,0.000646875,0.030033482,https://doi.org/10.1021/acsami.1c11599