Formula,temperature(K),seebeck_coefficient(μV/K),electrical_conductivity(S/m),thermal_conductivity(W/mK),power_factor(W/mK2),ZT,reference
In3.95Pb0.05Se3.00,480,-242,11200,0.86,0.000655917,0.366093098,10.1002/adma.201302038
In3.96Pb0.04Se3.00,480,-245,10000,0.91,0.00060025,0.316615385,10.1002/adma.201302038
In3.99Pb0.01Se3.00,480,-242,12247,0.91,0.000717233,0.378320866,10.1002/adma.201302038
Hf0.80Ti0.20Co1.00Sb0.80Sn0.20,480,192.9,54894,2.792,0.002042628,0.35116818,10.1039/c2ee21554c
In0.01Pb0.99Te0.99I0.01,481,-166,62900,1.703,0.001733272,0.486,https://doi.org/10.1063/1.3694742
In0.01Pb0.99Te1.00I0.00,481,-207.4,37350,1.636,0.001606601,0.472356491,https://doi.org/10.1063/1.3694742
In0.01Pb0.99Te1.00I0.00,481,-239,23968,1.45,0.001369076,0.45,https://doi.org/10.1063/1.3694742
In0.01Pb0.99Te1.00I0.00,481,-268.5,16000,1.473,0.001153476,0.376661206,https://doi.org/10.1063/1.3694742
In0.01Pb0.98Te0.99I0.01,481,-219.5,25300,1.515,0.00121896,0.389,https://doi.org/10.1063/1.3694742
In0.01Pb0.98Te1.00I0.00,481,-230.45,20780,1.4,0.001103568,0.37915432,https://doi.org/10.1063/1.3694742
In0.01Pb0.99Te0.99I0.01,481,-192.5,42100,1.561,0.001560068,0.480712856,https://doi.org/10.1063/1.3694742
In0.01Pb0.99Te1.00I0.00,481,-253,20500,1.512,0.001312185,0.417434355,https://doi.org/10.1063/1.3694742
Ca0.25Ba1.00Gd1.75Ni1.00O5.00,486,212.5,72.4617301,1.2739,3.27E-06,0.001248325,https://doi.org/10.1021/acs.inorgchem.7b00049
Nb1.00Co0.94Ni0.06Sn1.00,487,-68.53,164524,8.5357,0.000772664,0.044083954,https://doi.org/10.1021/acsami.1c08127
Ag1.00Sb1.00Te2.00,488,152.7,35200,1.0533,0.000820769,0.380266857,https://doi.org/10.1021/acs.inorgchem.9b00852
Ca0.20Ba1.00Gd1.80Ni1.00O5.00,489,211.03,73.47251346,1.6544,3.27E-06,0.000967123,https://doi.org/10.1021/acs.inorgchem.7b00049
Ag1.00Sb0.93Mn0.07Te2.00,491,119.47,84324,1.2067,0.001203563,0.489723682,https://doi.org/10.1021/acs.inorgchem.9b00852
Nb1.00Co0.96Ni0.04Sn1.00,492,-139.41,97278,8.5714,0.001890612,0.10852151,https://doi.org/10.1021/acsami.1c08127
Nb1.00Co0.92Ni0.08Sn1.00,492,-89.12,146190,8.285,0.001161096,0.068951007,https://doi.org/10.1021/acsami.1c08127
Nb1.00Co0.90Ni0.10Sn1.00,492,-151.76,90952,8.0952,0.002094724,0.127310554,https://doi.org/10.1021/acsami.1c08127
Ag1.00Sb0.99Mn0.01Te2.00,493,140,38667,0.92,0.000757873,0.406121182,https://doi.org/10.1021/acs.inorgchem.9b00852
Ag1.00Sb0.95Mn0.05Te2.00,494,123.51,62000,1.0733,0.000945793,0.435313116,https://doi.org/10.1021/acs.inorgchem.9b00852
Cu26.00V2.00Ge3.00Sb3.00S32.00,497,162.04,37544,1.2022,0.000985791,0.407534777,https://doi.org/10.1021/acs.inorgchem.1c01321
Cu26.00V2.00Ge4.00Sb2.00S32.00,497,104.2,111500,2.042,0.001210627,0.29465306,https://doi.org/10.1021/acs.inorgchem.1c01321
Cu26.00V2.00Ge5.00Sb1.00S32.00,497,71.1,201887,2.78,0.001020581,0.18245642,https://doi.org/10.1021/acs.inorgchem.1c01321
Cu26.00V2.00Ge6.00S32.00,497,49.08,302778,3.865,0.000729346,0.093786497,https://doi.org/10.1021/acs.inorgchem.1c01321
Pb0.96Tl0.02Na0.02Te1.00,497,189.87,58640,1.4611,0.002114008,0.71908977,https://doi.org/10.1021/acsami.1c14236
Pb0.97Tl0.01Na0.01Te1.00,497,192.86,54450,1.4111,0.002025267,0.713314095,https://doi.org/10.1021/acsami.1c14236
Pb0.98Tl0.01Na0.01Te1.00,497,195.1,60854,1.6136,0.002316347,0.713451035,https://doi.org/10.1021/acsami.1c14236
Pb0.98Tl0.01Na0.01Te1.00,497,193.14,55674,1.5625,0.002076811,0.660591897,https://doi.org/10.1021/acsami.1c14236
Pb0.99Na0.01Te1.00,497,164.05,88159,1.8722,0.00237257,0.629829898,https://doi.org/10.1021/acsami.1c14236
Pb0.99Tl0.01Na0.01Te1.00,497,212.42,44080,1.5111,0.001988989,0.654177463,https://doi.org/10.1021/acsami.1c14236
Pb0.99Tl0.01Te1.00,497,217.53,36622,1.4611,0.001732927,0.589463374,https://doi.org/10.1021/acsami.1c14236
Cu2.82Ag0.18Sb1.00Se4.00,498,395,6222,0.9,0.000970788,0.537169111,10.1039/c9ta05115e
Cu2.88Ag0.12Sb1.00Se4.00,498,400,6447,1.04,0.00103152,0.5,10.1039/c9ta05115e
Cu2.94Ag0.06Sb1.00Se4.00,498,415,4824,1.15,0.000830813,0.359778325,10.1039/c9ta05115e
Cu3.00Sb1.00Se4.00,498,397,3820,1.3,0.000602066,0.230637736,10.1039/c9ta05115e
Bi2.00Te3.00,498,-158.16,72257,0.9386,0.001807479,0.959007562,http://dx.doi.org/10.1016/j.pnsc.2013.06.007
Ce0.20Bi1.80Te3.00,498,-154.63,59028,0.67,0.001411385,1.049059499,http://dx.doi.org/10.1016/j.pnsc.2013.06.007
Sm0.20Bi1.80Te3.00,498,-155.8,52300,0.81,0.001269511,0.780514399,http://dx.doi.org/10.1016/j.pnsc.2013.06.007
Y0.20Bi1.80Te3.00,498,-152.33,59045,0.829,0.001370106,0.827,http://dx.doi.org/10.1016/j.pnsc.2013.06.007
Ge0.87Mn0.05Sb0.08Te1.00,498,163.6,85600,1.665,0.002291081,0.7,https://doi.org/10.1021/acs.chemmater.1c00331
Ge0.95Mn0.05Te1.00,498,88.39,228866,3.508,0.001788082,0.25383839,https://doi.org/10.1021/acs.chemmater.1c00331
Ge0.96Mn0.02Sb0.02Te1.00,498,114.52,165979,2.92,0.002176786,0.371246454,https://doi.org/10.1021/acs.chemmater.1c00331
Ge0.98Mn0.01Sb0.01Te1.00,498,73.55,262887,3.8289,0.001422114,0.184965096,https://doi.org/10.1021/acs.chemmater.1c00331
Ge0.98Mn0.02Te1.00,498,72.9,273196,4,0.001451876,0.180758507,https://doi.org/10.1021/acs.chemmater.1c00331
Ge0.99Mn0.01Te1.00,498,63.23,300000,4.4064,0.00119941,0.13555422,https://doi.org/10.1021/acs.chemmater.1c00331
Ge0.90Mn0.05Sb0.05Te1.00,498,133.23,100000,2.0856,0.001775023,0.423840429,https://doi.org/10.1021/acs.chemmater.1c00331
Ge1.00Te1.00,498,56.45,368041,4.9626,0.0011728,0.117691247,https://doi.org/10.1021/acs.chemmater.1c00331
Cu26.00Ti2.00Sb3.00Ge3.00S32.00,498,103.61,111765,1.747,0.001199801,0.342015358,https://doi.org/10.1021/acs.chemmater.1c00872
Cu26.00Ti2.00Sb4.00Ge2.00S32.00,498,159.79,44882,1.0258,0.001145965,0.556337126,https://doi.org/10.1021/acs.chemmater.1c00872
Ti0.93Mn0.07Ni1.00Sn0.93Sb0.07,498,-97.514,255629,6.45,0.002430771,0.187678141,https://doi.org/10.1021/acs.chemmater.7b02685
Ti0.95Mn0.05Ni1.00Sn0.95Sb0.05,498,-126.5,216600,6.05,0.003466087,0.285307686,https://doi.org/10.1021/acs.chemmater.7b02685
Ti0.97Mn0.03Ni1.00Sn0.97Sb0.03,498,-128.43,141722,5.4564,0.0023376,0.21335036,https://doi.org/10.1021/acs.chemmater.7b02685
Ti0.98Mn0.02Ni1.00Sn0.98Sb0.02,498,-143.3,158900,5.604,0.003262994,0.289966278,https://doi.org/10.1021/acs.chemmater.7b02685
Ti0.99Mn0.01Ni1.00Sn0.99Sb0.01,498,-158.1,100000,5.5235,0.002499561,0.225360981,https://doi.org/10.1021/acs.chemmater.7b02685
Ti0.90Mn0.10Ni1.00Sn0.90Sb0.10,498,-100.97,292053,6.0872,0.002977463,0.243589271,https://doi.org/10.1021/acs.chemmater.7b02685
Ti1.00Ni1.00Sn1.00,498,-179.24,64238,4.7987,0.002063773,0.214174432,https://doi.org/10.1021/acs.chemmater.7b02685
Nb1.00Co0.98Ni0.02Sn1.00,498,-147.06,70476,9.2381,0.001524159,0.082163145,https://doi.org/10.1021/acsami.1c08127
Tl8.99Bi1.01Te6.00,499,307,4300,0.322,0.000405271,0.628043725,https://doi.org/10.1021/cm402593f
Bi1.00Sb1.00Se0.92Br0.08,500,-163,20850,0.53,0.000553964,0.522607217,10.1002/adfm.201806558
Bi1.00Sb1.00Se0.94Br0.06,500,-169,19362,0.53,0.000552998,0.521696304,10.1002/adfm.201806558
Bi1.00Sb1.00Se0.96Br0.04,500,-169,16436,0.55,0.000469429,0.426753269,10.1002/adfm.201806558
Bi1.00Sb1.00Se0.98Br0.02,500,-173,16702,0.58,0.000499874,0.42,10.1002/adfm.201806558
Cu2.02Cd0.97Sn1.00Se4.00,500,186.4,6793,1.3149,0.000236023,0.089749226,10.1002/adma.200900409
Cu2.05Cd0.95Sn1.00Se4.00,500,152,18427,1.15,0.000425737,0.185103221,10.1002/adma.200900409
Cu2.10Cd0.90Sn1.00Se4.00,500,141,25517,1.008,0.000507303,0.251638629,10.1002/adma.200900409
Cu2.00Cd1.00Sn1.00Se4.00,500,251.3,3466,1.52,0.000218884,0.072001236,10.1002/adma.200900409
Sr0.11Ba0.18Co4.00Sb12.09,500,-130,288636,4.06,0.004877948,0.600732562,10.1007/s00339-010-5711-3
Sr0.16Yb0.03Co4.00Sb11.82,500,-154,210455,3.5,0.004991151,0.71302154,10.1007/s00339-010-5711-3
Sr0.21Co4.00Sb12.25,500,-162,165455,3.92,0.004342201,0.553852171,10.1007/s00339-010-5711-3
Sr0.21Yb0.03Co4.00Sb12.12,500,-146,243182,3.77,0.005183668,0.68748906,10.1007/s00339-010-5711-3
Fe1.00V1.00Sb1.00,500,-232,72000,7.22,0.003875328,0.268374515,10.1007/s11664-016-4804-y
Ca3.00Co3.70Ti0.30O9.00,500,217,4580,2.172,0.000215668,0.049647242,10.1016/j.jallcom.2010.04.055
Ca3.00Co3.80Ti0.20O9.00,500,169,5305,2.306,0.000151516,0.032852581,10.1016/j.jallcom.2010.04.055
Ca3.00Co3.90Ti0.10O9.00,500,149.46,5964,2.434,0.000133226,0.027367619,10.1016/j.jallcom.2010.04.055
Ca3.00Co4.00O9.00,500,136.4,6826,2.6,0.000126997,0.024422588,10.1016/j.jallcom.2010.04.055
Ca14.00Mg1.00Sb11.00,500,123,4150,0.632,6.28E-05,0.492,10.1021/cm504059t
Yb14.00Mg1.00Sb11.00,500,106.4,23650,0.825,0.000267741,0.162267093,10.1021/cm504059t
Fe1.00Nb0.86Hf0.14Sb1.00,500,124.5,366667,5.7627,0.00568343,0.493122162,10.1038/ncomms9144
Fe1.00Nb0.86Zr0.14Sb1.00,500,139.08,272093,8.5763,0.005263162,0.306843391,10.1038/ncomms9144
Fe1.00Nb0.88Hf0.12Sb1.00,500,138,322500,6.2,0.00614169,0.5,10.1038/ncomms9144
Fe1.00Nb0.92Hf0.08Sb1.00,500,167,214728,6.84,0.005988549,0.437759444,10.1038/ncomms9144
Fe1.00Nb0.92Zr0.08Sb1.00,500,174.5,196124,9.5254,0.005972025,0.313478953,10.1038/ncomms9144
Fe1.00Nb0.90Hf0.10Sb1.00,500,153.4,323200,6.844,0.0076054,0.555625379,10.1038/ncomms9144
Fe1.00Nb0.90Zr0.10Sb1.00,500,157.5,244186,9.5593,0.006057339,0.31682963,10.1038/ncomms9144
Eu1.00Zn0.50Cd0.52Sb2.00,500,228,22487,1.115,0.001168964,0.524199196,10.1039/B916346H
Eu1.00Zn0.70Cd0.32Sb2.00,500,198.46,40100,1.306,0.001579394,0.604668262,10.1039/B916346H
Eu1.00Zn0.90Cd0.12Sb2.00,500,172.5,74560,1.6147,0.002218626,0.687008732,10.1039/B916346H
Eu1.00Cd2.00Sb2.00,500,301,7658,0.874,0.000693822,0.396923603,10.1039/B916346H
Eu1.00Zn2.00Sb2.00,500,161.7,78700,1.674,0.00205776,0.614623728,10.1039/B916346H
Pb1.00Te1.00Ag2.00,500,-160.5,30700,0.543,0.00079084,0.726,10.1039/c1jm13888j
Ag2.00Te1.00,500,-117.74,51066,0.5763,0.000707913,0.614187946,10.1039/c1jm13888j
Fe1.00Nb0.80Ti0.20Sb1.00,500,111,270000,5.9,0.00332667,0.281921186,10.1039/c4ee03042g
Fe1.00Nb0.88Ti0.12Sb1.00,500,140,250000,8.24,0.0049,0.297330097,10.1039/c4ee03042g
Fe1.00Nb0.92Ti0.08Sb1.00,500,168,200000,9.4,0.0056448,0.300255319,10.1039/c4ee03042g
Fe1.00Nb0.96Ti0.04Sb1.00,500,206,113000,10.31,0.004795268,0.232554219,10.1039/c4ee03042g
Ag1.00Sn15.00Bi1.00Te17.00,500,123,121153,2.09,0.001832924,0.438498502,10.1039/c4ta05530f
Ag1.00Sn25.00Bi1.00Te27.00,500,93,150000,2.87,0.00129735,0.226019164,10.1039/c4ta05530f
Ag1.00Sn5.00Bi1.00Te7.00,500,137,77885,1.8235,0.001461824,0.400829055,10.1039/c4ta05530f
Sn1.00Te1.00,500,49,413460,6.55,0.000992717,0.075779959,10.1039/c4ta05530f
Bi1.20Sb0.80Se2.76Cl0.24,500,-143,23923,0.65,0.000489201,0.37630879,10.1039/d0ra04065g
Bi1.20Sb0.80Se2.82Cl0.18,500,-144,22044,0.71,0.000457104,0.321904496,10.1039/d0ra04065g
Bi1.20Sb0.80Se2.88Cl0.12,500,-152,17127,0.71,0.000395702,0.278663527,10.1039/d0ra04065g
Bi1.00Sb1.00Se2.76Cl0.24,500,-192,8730,0.49,0.000321823,0.328390531,10.1039/d0ra04065g
Bi1.00Sb1.00Se2.82Cl0.18,500,-182,11770,0.55,0.000389869,0.3544268,10.1039/d0ra04065g
Bi1.00Sb1.00Se2.88Cl0.12,500,-232,5450,0.47,0.000293341,0.312064681,10.1039/d0ra04065g
Ba1.00Cu3.96S3.00,500,84,20103,0.7728,0.000141847,0.091774565,10.1063/1.5099291
Ba1.00Cu4.00S3.00,500,92,12216,0.81,0.000103396,0.06382483,10.1063/1.5099291
Cu3.00P0.60Ge0.40S4.00,500,82,73200,1.52,0.000492197,0.161906842,https://doi.org/10.1002/adfm.202000973
Cu3.00P0.70Ge0.30S4.00,500,97,47000,1.2,0.000442223,0.184259583,https://doi.org/10.1002/adfm.202000973
Cu3.00P0.80Ge0.20S4.00,500,121.6,27600,0.9248,0.000408109,0.220647197,https://doi.org/10.1002/adfm.202000973
Cu3.00P0.90Ge0.10S4.00,500,177,7940,0.6748,0.000248752,0.184315545,https://doi.org/10.1002/adfm.202000973
Sn1.00S1.00,500,624,2.5,0.875,9.73E-07,0.000556251,https://doi.org/10.1016/j.jmat.2019.12.003
Mg2.16Si0.40Sn0.60Bi0.03,500,-162.8,146100,2.389,0.003872211,0.810425078,https://doi.org/10.1016/j.jssc.2013.04.041
Mg2.16Si0.40Sn0.60Bi0.01,500,-179.4,123333,2.271,0.003969394,0.877,https://doi.org/10.1016/j.jssc.2013.04.041
Mg2.16Si0.40Sn0.60Bi0.02,500,-168.1,129500,2.365,0.00365936,0.773649153,https://doi.org/10.1016/j.jssc.2013.04.041
Mg2.16Si0.40Sn0.60Bi0.01,500,-198.6,90503,2.0538,0.003569616,0.87,https://doi.org/10.1016/j.jssc.2013.04.041
Cu2.70Ag0.30Er1.00Te3.00,500,56,228400,2.07,0.000716262,0.173010242,https://doi.org/10.1016/j.mtphys.2020.100180
Cu2.90Ag0.10Er1.00Te3.00,500,57,203556,2.06,0.000661353,0.160522681,https://doi.org/10.1016/j.mtphys.2020.100180
Cu3.00Er1.00Te3.00,500,56.2,216000,2.18,0.000682223,0.156473174,https://doi.org/10.1016/j.mtphys.2020.100180
Ag2.00Mo6.00Te8.00,500,13.04,202768,3.881,3.45E-05,0.004442025,https://doi.org/10.1016/S1003-6326(08)60326-X
Ag1.00Mo6.00Te8.00,500,13.7,168000,3.99,3.15E-05,0.003951368,https://doi.org/10.1016/S1003-6326(08)60326-X
Cu2.00Mo6.00Te8.00,500,3.24,214200,3.31,2.25E-06,0.000339666,https://doi.org/10.1016/S1003-6326(08)60326-X
Cu1.00Mo6.00Te8.00,500,4.2,186200,3.6525,3.28E-06,0.00046,https://doi.org/10.1016/S1003-6326(08)60326-X
V1.00Fe1.00Sb1.00,500,-201.5,86140,5.2048,0.003497478,0.335985803,https://doi.org/10.1021/acs.chemmater.0c01189
Cu1.55S1.00,500,22.3,451442,4.815,0.000224498,0.023312315,https://doi.org/10.1021/acs.chemmater.1c01856
Cu1.50S1.00,500,21.24,473810,5.147,0.000213754,0.020764864,https://doi.org/10.1021/acs.chemmater.1c01856
Cu1.60S1.00,500,28.35,360577,4.414,0.000289804,0.032827803,https://doi.org/10.1021/acs.chemmater.1c01856
Yb10.00Ca3.00Ba1.00Mg1.00Sb11.00,500,116.575,17877,0.59185,0.000242944,0.205240867,https://doi.org/10.1021/acs.chemmater.1c02584
Yb7.00Ca6.00Ba1.00Mg1.00Sb11.00,500,132.4,12260,0.555,0.000214915,0.193616989,https://doi.org/10.1021/acs.chemmater.1c02584
Yb8.00Ca5.00Ba1.00Mg1.00Sb11.00,500,129.3,14600,0.578,0.00024409,0.211150479,https://doi.org/10.1021/acs.chemmater.1c02584
Yb9.00Ca4.00Ba1.00Mg1.00Sb11.00,500,128,17200,0.5644,0.000281805,0.249649894,https://doi.org/10.1021/acs.chemmater.1c02584
Ba7.97Ga15.95Sn30.09,500,360.56,10558,0.900641139,0.001372577,0.762,https://doi.org/10.1021/acs.chemmater.5b00025
Ba8.01Ga15.83Zn0.02Sn30.15,500,485.42,4202,0.8623,0.000990128,0.574120426,https://doi.org/10.1021/acs.chemmater.5b00025
Ba8.01Ga15.88Zn0.01Sn30.11,500,450.7,5876,0.855010573,0.001193595,0.698,https://doi.org/10.1021/acs.chemmater.5b00025
Ba8.01Ga15.89Zn0.01Sn30.10,500,398.9,11050,0.9078,0.001758289,0.968434331,https://doi.org/10.1021/acs.chemmater.5b00025
Ba8.00Ga15.88Zn0.01Sn30.12,500,400,12310,0.91874242,0.0019696,1.0719,https://doi.org/10.1021/acs.chemmater.5b00025
Mg3.07Sb1.50Bi0.44Se0.06,500,-312.69,9022,0.7403,0.000882126,0.595789799,https://doi.org/10.1021/acs.chemmater.7b01746
Mg3.07Sb1.50Bi0.45Se0.05,500,-305.65,9987,0.7375,0.000933005,0.632545586,https://doi.org/10.1021/acs.chemmater.7b01746
Mg3.07Sb1.50Bi0.46Se0.04,500,-306.24,9823,0.682,0.00092123,0.675388414,https://doi.org/10.1021/acs.chemmater.7b01746
Mg3.07Sb1.50Bi0.47Se0.03,500,-301.52,10459,0.7056,0.000950873,0.673804402,https://doi.org/10.1021/acs.chemmater.7b01746
Mg3.07Sb1.50Bi0.48Se0.02,500,-298.26,11689,0.7069,0.001039842,0.735494464,https://doi.org/10.1021/acs.chemmater.7b01746
Co1.00As1.00Sb1.00,500,-130.815,34704,3.034,0.000593874,0.09786988,https://doi.org/10.1021/acs.chemmater.7b05170
Cu2.08Sn0.93S3.00,500,61.15,225000,3.2709,0.000841348,0.128611019,https://doi.org/10.1021/acs.inorgchem.1c02105
Cu22.00Sn10.00S32.00,500,71.967,157205,2.64,0.000814204,0.154205275,https://doi.org/10.1021/acs.inorgchem.1c02105
Cu22.00Sn9.25Sb0.75S32.00,500,96.36,111801,2.15,0.0010381,0.241418649,https://doi.org/10.1021/acs.inorgchem.1c02105
Cu22.00Sn9.00Sb1.00S32.00,500,109.51,73711,1.929,0.000883975,0.229127722,https://doi.org/10.1021/acs.inorgchem.1c02105
Ag1.00Bi0.85Sb0.15Se2.00,500,510.64,239.6,0.3974,6.25E-05,0.078606529,https://doi.org/10.1021/acs.inorgchem.9b00874
Ag1.00Bi0.95Sb0.05Se2.00,500,175.53,141,0.4455,4.34E-06,0.00487578,https://doi.org/10.1021/acs.inorgchem.9b00874
Ag1.00Bi0.90Sb0.10Se2.00,500,453.13,179,0.402,3.68E-05,0.04,https://doi.org/10.1021/acs.inorgchem.9b00874
Ag1.00Bi1.00Se2.00,500,421.88,240,0.518,4.27E-05,0.041231521,https://doi.org/10.1021/acs.inorgchem.9b00874
Sn1.00Te0.15Ag1.00Sb1.00Se2.00,500,101,112400,2.01,0.001146592,0.28522199,https://doi.org/10.1021/acs.jpcc.9b03329
Sn1.00Te0.10Ag1.00Sb1.00Se2.00,500,90.38,138255,2.29,0.001129342,0.248,https://doi.org/10.1021/acs.jpcc.9b03329
Sn1.00Te0.25Ag1.00Sb1.00Se2.00,500,109.2,94295,1.71,0.001124434,0.328781851,https://doi.org/10.1021/acs.jpcc.9b03329
Sn1.00Te0.20Ag1.00Sb1.00Se2.00,500,104.25,89262,1.2,0.001108,0.466,https://doi.org/10.1021/acs.jpcc.9b03329
Mg0.95Li0.05Ge0.90Si0.10,500,293.3,11700,3.0314,0.001006491,0.166010954,https://doi.org/10.1021/acsaem.1c00172
Mg0.97Li0.03Ge0.80Si0.20,500,325.5,8923,2.7658,0.000945394,0.170907889,https://doi.org/10.1021/acsaem.1c00172
Mg0.97Li0.03Ge0.90Si0.10,500,248.99,26000,3.1698,0.001611897,0.254258395,https://doi.org/10.1021/acsaem.1c00172
Mg0.98Li0.02Ge0.80Si0.20,500,360.4,3846,2.7484,0.00049955,0.090880124,https://doi.org/10.1021/acsaem.1c00172
Mg0.98Li0.02Ge0.90Si0.10,500,290.94,13000,3.3019,0.001100399,0.166631195,https://doi.org/10.1021/acsaem.1c00172
Mg0.99Li0.01Ge0.90Si0.10,500,317.45,10846,3.5,0.001093,0.156142893,https://doi.org/10.1021/acsaem.1c00172
Bi0.23Sb0.77Te3.00,500,186.74,30882,1.19,0.001076912,0.452483941,https://doi.org/10.1021/acsaem.1c01830
Er0.01Bi0.23Sb0.77Te3.00,500,195.83,31000,1.2604,0.001188831,0.471608638,https://doi.org/10.1021/acsaem.1c01830
Er0.02Bi0.23Sb0.77Te3.00,500,192.39,31784,1.0794,0.00117645,0.544955615,https://doi.org/10.1021/acsaem.1c01830
Er0.03Bi0.23Sb0.77Te3.00,500,196.9,31600,1.122,0.00122512,0.54595351,https://doi.org/10.1021/acsaem.1c01830
Cu1.85Ag0.15Sn1.00Se3.00,500,316.16,1010,0.5365,0.000100957,0.094088273,https://doi.org/10.1021/acsami.1c17460
Cu1.88Ag0.12Sn1.00Se3.00,500,229.29,2510,0.6349,0.00013196,0.103922271,https://doi.org/10.1021/acsami.1c17460
Cu1.93Ag0.07Sn1.00Se3.00,500,126.77,9152,0.8254,0.000147078,0.089095246,https://doi.org/10.1021/acsami.1c17460
Cu1.90Ag0.10Sn1.00Se3.00,500,163.64,4071,0.727,0.000109013,0.074974856,https://doi.org/10.1021/acsami.1c17460
Cu2.00Sn1.00Se3.00,500,125,15909,1.0603,0.000248578,0.117220657,https://doi.org/10.1021/acsami.1c17460
Tl9.00Bi0.95Te6.00,500,198,21000,0.5,0.000823284,0.823284,https://doi.org/10.1021/cm402593f
Tl9.00Bi0.96Te6.00,500,210.4,19700,0.4965,0.000872083,0.878230365,https://doi.org/10.1021/cm402593f
Cu5.00Sn2.00Se7.00,500,34.42,383900,4.304,0.00045482,0.052836931,https://doi.org/10.1021/cm501899q
Mg1.00Ag1.00Sb1.00,500,199.1,42000,1.01,0.001664914,0.824214861,https://doi.org/10.1021/cm5041826
Mg1.00Ag1.00Sb0.98In0.01,500,183.09,77838,1.4492,0.002609281,0.900248895,https://doi.org/10.1021/cm5041826
Mg1.00Ag1.00Sb0.98In0.02,500,175.27,71171,1.4468,0.0022945,0.7918,https://doi.org/10.1021/cm5041826
Mg1.00Ag1.00Sb0.99In0.01,500,202.36,46000,1.0459,0.00188368,0.941,https://doi.org/10.1021/cm5041826
Mg1.00Ag1.00Sb0.99In0.01,500,202.73,57455,1.1508,0.002361369,1.025968486,https://doi.org/10.1021/cm5041826
Ba0.03Co4.00Sb12.00,500,-244.14,27660,4.075,0.001648656,0.202289084,https://doi.org/10.1063/1.2920210
Ba0.11Yb0.03Co4.00Sb12.00,500,-153.7,130800,3.234,0.003089979,0.477733249,https://doi.org/10.1063/1.2920210
Ba0.11Yb0.08Co4.00Sb12.00,500,-144.5,154000,2.39,0.003215559,0.672710983,https://doi.org/10.1063/1.2920210
Ba0.15Yb0.01Co4.00Sb12.00,500,-165,127500,3.82,0.003471188,0.445,https://doi.org/10.1063/1.2920210
Bi0.48Sb1.52Te3.00,500,181.2,35570,2.086,0.001167885,0.266,https://doi.org/10.1021/acsami.1c05525
Mg3.50Gd0.01Sb2.00,500,-285.92,6711,0.8813,0.000548626,0.311259448,https://doi.org/10.1021/acsami.0c22558
Mg3.50Gd0.02Sb2.00,500,-273.94,10926,0.8505,0.000819921,0.482023027,https://doi.org/10.1021/acsami.0c22558
Mg3.50Gd0.03Sb2.00,500,-254.23,16667,0.8604,0.001077236,0.626009081,https://doi.org/10.1021/acsami.0c22558
Mg3.50Gd0.04Sb2.00,500,-278,13524,0.8055,0.001045189,0.648782629,https://doi.org/10.1021/acsami.0c22558
Mg3.50Gd0.04Sb2.00,500,-234.6,17972,0.9272,0.000989128,0.533395082,https://doi.org/10.1021/acsami.0c22558
Mg3.50Gd0.04Sb2.00,500,-244.29,19592,0.9391,0.001169204,0.622512842,https://doi.org/10.1021/acsami.0c22558