Formula,temperature(K),seebeck_coefficient(μV/K),electrical_conductivity(S/m),thermal_conductivity(W/mK),power_factor(W/mK2),ZT,reference
Mg3.50Gd0.03Sb1.97Te0.03,500,-251.76,17655,0.7804,0.001119029,0.716958347,https://doi.org/10.1021/acsami.0c22558
Mg3.50Gd0.04Sb1.97Te0.03,500,-226.79,20147,0.788,0.001036235,0.657509414,https://doi.org/10.1021/acsami.0c22558
Mg3.50Ho0.01Sb2.00,500,-290.07,2561,0.8602,0.000215484,0.125252319,https://doi.org/10.1021/acsami.0c22558
Mg3.50Ho0.02Sb2.00,500,-289.36,10129,0.9258,0.000848093,0.458032601,https://doi.org/10.1021/acsami.0c22558
Mg3.50Ho0.03Sb2.00,500,-258.2,13030,0.9213,0.000868674,0.471439345,https://doi.org/10.1021/acsami.0c22558
Mg3.50Ho0.04Sb2.00,500,-267.96,15290,0.9708,0.001097861,0.565441474,https://doi.org/10.1021/acsami.0c22558
Mg3.50Ho0.01Sb1.97Te0.03,500,-261.35,15661,0.8727,0.001069706,0.612871642,https://doi.org/10.1021/acsami.0c22558
Mg3.50Ho0.02Sb1.97Te0.03,500,-253.19,19279,0.894,0.001235884,0.691210117,https://doi.org/10.1021/acsami.0c22558
Mg3.50Ho0.03Sb1.97Te0.03,500,-235.21,21306,0.8798,0.001178728,0.669883889,https://doi.org/10.1021/acsami.0c22558
Mg3.50Ho0.04Sb1.97Te0.03,500,-237,21450,0.9112,0.001204825,0.661119979,https://doi.org/10.1021/acsami.0c22558
Tl9.00Sb1.00Te6.00,502,193,22636,0.5,0.000843168,0.846541037,https://doi.org/10.1021/cm402593f
Cu1.85Se1.00,502,32.99,348077,3.9394,0.000378826,0.048274034,https://doi.org/10.1021/acsami.1c08886
Li0.01Cu1.85Se1.00,502,33.38,365385,3.697,0.000407121,0.055281223,https://doi.org/10.1021/acsami.1c08886
Li0.02Cu1.85Se1.00,502,35.71,296154,3.2612,0.000377657,0.058133114,https://doi.org/10.1021/acsami.1c08886
Li0.03Cu1.85Se1.00,502,37.92,281731,2.6045,0.000405108,0.07808195,https://doi.org/10.1021/acsami.1c08886
Tm1.00Cu1.00Te2.00,503,110,57326,1.182722826,0.000693645,0.295,10.1002/chem.201404453
Tl8.98Sb1.02Te6.00,503,192,22400,0.46,0.000825754,0.9062,https://doi.org/10.1021/cm402593f
Tl8.99Sb1.01Te6.00,503,179.75,26055,0.528,0.000841839,0.801978893,https://doi.org/10.1021/cm402593f
Tl9.00Bi0.97Te6.00,503,216.5,18455,0.45,0.000865027,0.966908376,https://doi.org/10.1021/cm402593f
Tl9.00Bi0.98Te6.00,503,239.3,14545,0.39,0.000832912,1.074242922,https://doi.org/10.1021/cm402593f
Tl9.00Bi0.99Te6.00,503,264,11182,0.394,0.000779341,0.994945071,https://doi.org/10.1021/cm402593f
Tl9.00Bi1.00Te6.00,503,285,8100,3.43,0.000657923,0.096482512,https://doi.org/10.1021/cm402593f
Tl9.00Sb0.98Te6.00,503,177,27100,0.537,0.000849016,0.795260703,https://doi.org/10.1021/cm402593f
Ag0.97Cr1.00Se2.00,503,118.43,14157,0.4146,0.000198561,0.240898102,https://doi.org/10.1021/acsami.0c09355
Ag0.97Cr0.99Sb0.01Se2.00,503,111.23,15016,0.5071,0.00018578,0.184277584,https://doi.org/10.1021/acsami.0c09355
Ag0.97Cr0.97Sb0.03Se2.00,503,111,17091,0.4481,0.000210578,0.236377684,https://doi.org/10.1021/acsami.0c09355
Ag0.97Cr0.95Sb0.05Se2.00,503,119.07,9792,0.5067,0.000138828,0.137813954,https://doi.org/10.1021/acsami.0c09355
Ag0.97Cr0.99Bi0.01Se2.00,503,111.86,12368,0.4531,0.000154757,0.171799949,https://doi.org/10.1021/acsami.0c09355
Ag0.97Cr0.97Bi0.03Se2.00,503,105.93,15260,0.4088,0.000171235,0.210692742,https://doi.org/10.1021/acsami.0c09355
Ag0.97Cr0.95Bi0.05Se2.00,503,115.68,12020,0.4703,0.00016085,0.1720339,https://doi.org/10.1021/acsami.0c09355
Tl8.95Bi1.05Te6.00,504,80,1054,0.356,6.75E-06,0.009549951,https://doi.org/10.1021/cm402593f
Tl8.97Sb1.03Te6.00,504,200.8,20000,0.463,0.000806413,0.883,https://doi.org/10.1021/cm402593f
Li0.03Cu1.83Bi0.02Se1.00,504,47.75,173563,2.0357,0.000395734,0.097976215,https://doi.org/10.1021/acsami.1c08886
Li0.03Cu1.82Bi0.03Se1.00,504,56.75,139080,1.6518,0.000447916,0.136668834,https://doi.org/10.1021/acsami.1c08886
Li0.03Cu1.81Bi0.04Se1.00,504,72.05,103448,1.5714,0.00053702,0.172239936,https://doi.org/10.1021/acsami.1c08886
Li0.03Cu1.80Bi0.05Se1.00,504,69.23,91954,1.3839,0.000440716,0.160503725,https://doi.org/10.1021/acsami.1c08886
Bi2.00Te3.00,505,-113,20649,0.924,0.000263667,0.144103762,https://doi.org/10.1021/acsami.1c00355
Bi1.94Nb0.06Te3.00,505,-115.6,57078,0.8467,0.000762754,0.454931735,https://doi.org/10.1021/acsami.1c00355
Bi1.92Nb0.08Te3.00,505,-121.2,98571,0.7786,0.001447953,0.939142254,https://doi.org/10.1021/acsami.1c00355
Bi1.90Nb0.10Te3.00,505,-117.07,55714,0.7548,0.000763582,0.510875485,https://doi.org/10.1021/acsami.1c00355
Tl9.00Sb0.97Te6.00,507,173,26330,0.55,0.000788031,0.726420907,https://doi.org/10.1021/cm402593f
Ba0.50Cr5.00Se8.00,507.37,285.81,709,1.27760918,5.79E-05,0.023,https://doi.org/10.1021/acs.chemmater.5b02933
Ag8.00Ge1.00Te6.00,509,366.4,776,0.283,0.000104177,0.189,10.1002/pssr.200701302
K0.97Ba0.03Ga1.00Sb4.00,509,-206.122,20000,0.795787156,0.000849726,0.5435,https://doi.org/10.1021/acs.chemmater.7b01217
K0.98Ba0.01Ga1.00Sb4.00,509,-211.9,20000,0.892770293,0.000898032,0.512,https://doi.org/10.1021/acs.chemmater.7b01217
K0.98Ba0.02Ga1.00Sb4.00,509,-192.86,21130,0.781538563,0.00078593,0.51186,https://doi.org/10.1021/acs.chemmater.7b01217
K0.99Ba0.01Ga1.00Sb4.00,509,-268.37,6822,0.668691538,0.000491337,0.374,https://doi.org/10.1021/acs.chemmater.7b01217
K0.99Ba0.01Ga1.00Sb4.00,509,-220.4,13266,0.699520945,0.000644411,0.4689,https://doi.org/10.1021/acs.chemmater.7b01217
Cu1.00Fe0.92In0.08S2.00,510,-372.5,2630,2.037,0.000364929,0.091366597,10.1021/acs.jpcc.6b10308
Cu1.00Fe0.96In0.04S2.00,510,-355.2,4244,2.38,0.000535453,0.114739911,10.1021/acs.jpcc.6b10308
Cu1.00Fe0.98In0.02S2.00,510,-353,4800,2.743,0.000598123,0.11120774,10.1021/acs.jpcc.6b10308
Cu1.00Fe1.00S2.00,510,-361.6,4880,3.512,0.000638082,0.092660008,10.1021/acs.jpcc.6b10308
Sr14.80Ga28.60Ge56.60,510,-101,92545,2.16,0.000944052,0.222901059,10.1063/1.2194187
Ag0.01Cr1.99Se3.00,512,143.2,28600,1.6067,0.000586478,0.186890504,https://doi.org/10.1021/acs.inorgchem.8b01704
Ag0.02Cr1.98Se3.00,512,142.8,28571,1.525,0.000582615,0.2,https://doi.org/10.1021/acs.inorgchem.8b01704
Ag0.03Cr1.97Se3.00,512,139.44,30319,1.5017,0.000589508,0.200990903,https://doi.org/10.1021/acs.inorgchem.8b01704
Ag0.04Cr1.96Se3.00,512,135.1,30200,1.4867,0.000551211,0.189829743,https://doi.org/10.1021/acs.inorgchem.8b01704
Cr1.00Se3.00,512,149,27350,1.7517,0.000607197,0.177476191,https://doi.org/10.1021/acs.inorgchem.8b01704
Ca0.15Ba1.00Gd1.85Ni1.00O5.00,513,224.26,123.5371898,2.0404,6.21E-06,0.00156208,https://doi.org/10.1021/acs.inorgchem.7b00049
Ca11.00Sb10.00,513,16,2060,0.9219,5.27E-07,0.000293454,https://doi.org/10.1021/acs.inorgchem.7b00617
Ca2.00Yb9.00Sb10.00,513,8,125510,2.146,8.03E-06,0.001920198,https://doi.org/10.1021/acs.inorgchem.7b00617
Ca2.00Yb9.00Sb9.00Ge1.00,513,20.44,877.55,2.034,3.67E-07,9.25E-05,https://doi.org/10.1021/acs.inorgchem.7b00617
Ca6.00Yb5.00Sb10.00,513,11.26,51224,1.3969,6.49E-06,0.002385077,https://doi.org/10.1021/acs.inorgchem.7b00617
Ca9.00Yb2.00Sb10.00,513,14.37,56327,0.8469,1.16E-05,0.007045558,https://doi.org/10.1021/acs.inorgchem.7b00617
Ca9.00Yb2.00Sb7.00Ge3.00,513,64.4,206,1,8.54E-07,0.000438285,https://doi.org/10.1021/acs.inorgchem.7b00617
Ca9.00Yb2.00Sb9.00Ge1.00,513,-1.33,14639,0.8844,2.59E-08,1.50E-05,https://doi.org/10.1021/acs.inorgchem.7b00617
Ce0.75Fe3.00Co1.00Sb12.00,513,88.6,110244,6.4585,0.000865411,0.068739775,https://doi.org/10.1021/acsami.1c16622
Ag1.00Bi1.00Se2.00,514,-177,13400,0.71,0.000419809,0.303917775,10.1039/c7dt04821a
Ba8.03Cu5.00Ge40.97,514,-136.4,38800,1.249,0.000721872,0.297071608,10.1103/PhysRevB.87.115206
Ba8.04Cu4.99Si18.00Ge22.98,514,-167.8,26350,1.36,0.000741933,0.281,10.1103/PhysRevB.87.115206
Ba8.00Cu5.18Si9.98Ge30.85,514,-111.34,60944,1.654,0.000755498,0.234779949,10.1103/PhysRevB.87.115206
Ba8.00Cu5.00Si25.00Ge16.00,514,-83.1,94600,1.885,0.000653271,0.178133232,10.1103/PhysRevB.87.115206
Cu5.13Sn1.87S6.65Cl0.35,515,86.93,97414,1.6875,0.000736141,0.224659187,https://doi.org/10.1021/acs.chemmater.1c03434
Cu5.13Sn1.87S7.00,515,42.61,313889,4.275,0.000569901,0.0686547,https://doi.org/10.1021/acs.chemmater.1c03434
Cu5.00Sn2.00S6.65Cl0.35,515,75,118947,2.125,0.000669077,0.162152749,https://doi.org/10.1021/acs.chemmater.1c03434
Cr1.99Fe0.01Ge2.00Te6.00,515,415.3,796.875,0.724,0.00013744,0.097764848,https://doi.org/10.1021/acs.chemmater.7b02346
Cr1.99Mn0.01Ge2.00Te6.00,515,332,2734.375,0.7157,0.000301394,0.21687548,https://doi.org/10.1021/acs.chemmater.7b02346
Cr2.00Ge2.00Te6.00,515,455.67,609.375,0.7517,0.000126528,0.086685845,https://doi.org/10.1021/acs.chemmater.7b02346
Ca1.55Yb3.45Al2.00Sb6.00,515,178.3,900,0.866,2.86E-05,0.017015101,https://doi.org/10.1021/acs.inorgchem.0c01944
Ca1.58Yb3.42Al2.00Sb6.00,515,37.57,21726,3.6,3.07E-05,0.004386993,https://doi.org/10.1021/acs.inorgchem.0c01944
Cu10.50Ni0.50Zn1.00Sb4.00S13.00,517,205.4,10153,0.47,0.000428347,0.473,10.1021/cm502570b
Cu10.50Ni1.30Zn0.20Sb4.00S13.00,517,177,22570,0.658,0.000707096,0.562,10.1021/cm502570b
Cu10.50Ni1.50Sb4.00S13.00,517,172.6,23550,0.716,0.000701572,0.506582304,10.1021/cm502570b
Cu10.50Ni1.00Zn0.50Sb4.00S13.00,517,190.6,19800,0.5495,0.000719302,0.676758671,10.1021/cm502570b
Ba8.02Cu4.98Si35.00Ge5.99,517,-72,115320,2.225,0.000597819,0.1378,10.1103/PhysRevB.87.115206
Ba8.04Cu4.90Si3.23Ge37.83,517,-99.5,71000,1.522,0.000702918,0.237,10.1103/PhysRevB.87.115206
Ba8.07Cu4.89Si41.03,517,-66,136190,2.7,0.000593244,0.113595171,10.1103/PhysRevB.87.115206
Ba8.00Cu5.04Si13.01Ge27.96,517,-99.5,69600,1.864,0.000689057,0.1906,10.1103/PhysRevB.87.115206
Ca0.99Yb4.01Al2.00Sb5.84Ge0.16,517,212.74,2056,0.9704,9.31E-05,0.049574823,https://doi.org/10.1021/acs.inorgchem.9b00181
In3.94Pb0.06Se3.00,518,-256,8100,1.174,0.000530842,0.234221421,10.1002/adma.201302038
In3.95Pb0.05Se3.00,518,-259,10900,0.81,0.000731183,0.467595978,10.1002/adma.201302038
In3.96Pb0.04Se3.00,518,-272,9500,0.86,0.000702848,0.42334333,10.1002/adma.201302038
In3.99Pb0.01Se3.00,518,-252,11111,0.88,0.000705593,0.415337665,10.1002/adma.201302038
Ag0.01Sn0.99Se1.00,518,380.77,698,0.2863,0.0001012,0.183100395,https://doi.org/10.1021/acs.chemmater.7b01612
Ag0.01Sn0.99Se0.65S0.35,518,401.7,326,0.185,5.26E-05,0.147292046,https://doi.org/10.1021/acs.chemmater.7b01612
Ag0.01Sn0.99Se0.85S0.15,518,395.3,571,0.1616,8.92E-05,0.286007973,https://doi.org/10.1021/acs.chemmater.7b01612
Ag0.01Sn0.99Se0.80S0.20,518,405.98,558,0.1575,9.20E-05,0.302477224,https://doi.org/10.1021/acs.chemmater.7b01612
Ag0.01Sn0.99Se0.90S0.10,518,385.04,698,0.197,0.000103483,0.272101323,https://doi.org/10.1021/acs.chemmater.7b01612
Ba1.40Bi0.60Co1.00Ru1.00O6.00,518,92.7,50000,1.135,0.000429665,0.196,https://doi.org/10.1021/acs.inorgchem.1c02442
Ba1.60Bi0.40Co1.00Ru1.00O6.00,518,48,84920,1.254,0.000195656,0.080821086,https://doi.org/10.1021/acs.inorgchem.1c02442
Ba1.70Bi0.30Co1.00Ru1.00O6.00,518,29.4,123000,1.3,0.000106316,0.042362948,https://doi.org/10.1021/acs.inorgchem.1c02442
Ba1.80Bi0.20Co1.00Ru1.00O6.00,518,24.4,137180,1.3195,8.50E-05,0.0333687,https://doi.org/10.1021/acs.inorgchem.1c02442
Ba1.90Bi0.10Co1.00Ru1.00O6.00,518,20.33,184500,1.367,7.63E-05,0.029,https://doi.org/10.1021/acs.inorgchem.1c02442
Ba2.00Co1.00Ru1.00O6.00,518,17,223000,1.455,6.44E-05,0.022944018,https://doi.org/10.1021/acs.inorgchem.1c02442
Sn1.00Te1.00,519,37.5,397633,5.6711,0.000559171,0.051173487,https://doi.org/10.1021/acsami.1c15595
Cu1.00I0.00Bi2.00Te3.00,519,-162.26,81218,1.575,0.002138332,0.704631467,https://doi.org/10.1021/acsami.0c09529
Ca5.00In2.00Sb6.00,520,480,967,0.7496,0.000222797,0.154554877,10.1039/c3dt50428j
Mg2.16Si0.40Sn0.60Bi0.01,520,-240.2,51744,1.7746,0.002985424,0.874800194,https://doi.org/10.1016/j.jssc.2013.04.041
Ca1.18Yb3.82Al1.84In0.16Sb6.00,520,36.19,28545,2.7,3.74E-05,0.007200237,https://doi.org/10.1021/acs.inorgchem.0c01944
Cu2.00Se0.50S0.50,520,67.82,117429,1.39,0.000540121,0.186,https://doi.org/10.1021/acs.inorgchem.1c01631
Cu2.00Se0.70S0.30,520,69.8,107429,1.28533,0.000523398,0.211748858,https://doi.org/10.1021/acs.inorgchem.1c01631
Cu2.00Se0.90S0.10,520,86.14,65143,0.696,0.000483368,0.361136674,https://doi.org/10.1021/acs.inorgchem.1c01631
Ag3.00Rb1.00Mo9.00Se11.00,520,128.54,8050,0.7666,0.000133006,0.090220868,https://doi.org/10.1021/acs.inorgchem.7b01200
Ca1.11Yb3.89Al2.00Sb5.77Ge0.23,520,54.3,16500,2.037,4.87E-05,0.012419266,https://doi.org/10.1021/acs.inorgchem.9b00181
Pb1.00Zn0.01Te1.00,520,-326,15980,1.244,0.00169829,0.728,https://doi.org/10.1021/acsami.1c14518
Pb0.99Zn0.02Te1.00,520,-312.7,22730,1.313,0.002222569,0.880225236,https://doi.org/10.1021/acsami.1c14518
Pb0.98Zn0.03Te1.00,520,-265.3,29400,1.39,0.002069292,0.782,https://doi.org/10.1021/acsami.1c14518
Pb0.98Zn0.04Te1.00,520,-253.53,33400,1.4694,0.002146867,0.759746115,https://doi.org/10.1021/acsami.1c14518
Pb0.97Zn0.04Te1.00,520,-232.61,38400,1.511,0.002077725,0.72,https://doi.org/10.1021/acsami.1c14518
Ca14.00Mg1.00Bi11.00,521,66.94,24828,0.9538,0.000111253,0.060770605,https://doi.org/10.1021/acs.inorgchem.7b01548
Eu14.00Mg1.00Bi11.00,521,42.5,52143,1.626,9.42E-05,0.030178042,https://doi.org/10.1021/acs.inorgchem.7b01548
Sr14.00Mg1.00Bi11.00,521,56.82,55725,1.3275,0.000179909,0.070608296,https://doi.org/10.1021/acs.inorgchem.7b01548
Yb14.00Mg1.00Bi11.00,521,47.95,68224,1.82,0.000156861,0.044903556,https://doi.org/10.1021/acs.inorgchem.7b01548
Yb1.00Si2.00,522,-36.7,620500,10.4,0.000835745,0.041947982,10.1002/pssr.201700372
Ca3.00Al0.95Zn0.05Sb3.00,522,214.4,5050,0.922,0.000232135,0.129,10.1039/c2jm31324c
Ca3.00Al0.98Zn0.02Sb3.00,522,230.7,3870,0.947,0.000205971,0.113534193,10.1039/c2jm31324c
Ca3.00Al0.99Zn0.01Sb3.00,522,208,9711,1.07,0.000420137,0.187,10.1039/c2jm31324c
Ca3.00Al1.00Sb3.00,522,390,498,0.85,7.57E-05,0.045,10.1039/c2jm31324c
Ca5.00In1.98Zn0.02Sb6.00,522,287.7,5340,0.812,0.000441999,0.282,10.1039/c3dt50428j
Ca5.00In1.90Zn0.10Sb6.00,522,162,20860,1.008,0.00054745,0.273,10.1039/c3dt50428j
Cu12.00Sb4.00S13.00,522,123.2,30440,0.653,0.000462026,0.365,https://doi.org/10.1021/acs.chemmater.6b04950
Cu11.00Zn1.00Sb4.00S13.00,522,162,12604,0.4684,0.000330779,0.368631158,https://doi.org/10.1021/acs.chemmater.6b04950
Bi0.82Ba0.17Cu1.00Se1.00O1.00,522,176.92,16058,0.63,0.0007074,0.539,https://doi.org/10.1021/acsaem.1c02720
Bi0.88Ba0.12Cu1.00Se1.00O1.00,522,192.95,12452,0.7827,0.0004903,0.326991951,https://doi.org/10.1021/acsaem.1c02720
Bi0.80Ba0.20Cu1.00Se1.00O1.00,522,189.5,13510,0.743,0.00065,0.45666218,https://doi.org/10.1021/acsaem.1c02720
Bi0.95Ba0.05Cu1.00Se1.00O1.00,522,264,4275,0.695,0.00029795,0.223784329,https://doi.org/10.1021/acsaem.1c02720
Bi1.00Cu1.00Se1.00O1.00,522,398.1,971,0.578,0.000153888,0.14,https://doi.org/10.1021/acsaem.1c02720
Ti1.00Zr0.01Ni1.00Sn1.00,522,-183,60000,2.584,0.00200934,0.4314,https://doi.org/10.1021/acsami.1c14723
Ti1.00Zr0.01Ni1.00Sn1.00,522,-203.05,57077,2.3661,0.002353245,0.5546,https://doi.org/10.1021/acsami.1c14723
Ag1.00Cu1.00Te1.00,522,255.44,9806,0.4704,0.000639838,0.710023773,https://doi.org/10.1021/acsami.0c17836
Ag1.00Cu1.00Te0.90Se0.10,522,195.3,23786,0.3753,0.0009114,1.4458,https://doi.org/10.1021/acsami.0c17836
Ag1.00Cu1.00Te0.80Se0.20,522,178.56,23107,0.4926,0.0007453,0.7988,https://doi.org/10.1021/acsami.0c17836
Ag1.00Cu1.00Te0.70Se0.30,522,231.35,13301,0.367,0.000711907,1.012576257,https://doi.org/10.1021/acsami.0c17836
Ag1.00Cu1.00Te0.60Se0.40,522,245.83,8155,0.379,0.000492826,0.678773722,https://doi.org/10.1021/acsami.0c17836
Ag1.00Cu1.00Te0.50Se0.50,522,161.05,1845,0.296,4.79E-05,0.084391095,https://doi.org/10.1021/acsami.0c17836
In4.00Se2.32Cl0.03,523,-270.3,16390,0.82,0.00119,0.763763468,10.1002/adma.201004739
In4.00Se2.67Cl0.03,523,-164.8,40910,0.661,0.00117,0.879111829,10.1002/adma.201004739
Mg2.00Cu3.00In3.00Te8.00,523,310.4,3345,1.85,0.000322285,0.091110726,https://doi.org/10.1021/acsaem.9b02004
Cu2.00Sn0.80Zn0.20S3.00,523,78,98400,1.86,0.000598666,0.168334467,10.1038/srep32501
Cu2.00Sn0.95Zn0.05S3.00,523,151,14000,0.964,0.000319214,0.173183529,10.1038/srep32501
Cu2.00Sn0.90Zn0.10S3.00,523,107.3,41643,1.368,0.000479448,0.183297712,10.1038/srep32501
Cu2.00Sn1.00S3.00,523,390,190,1.23,2.89E-05,0.012287949,10.1038/srep32501
In4.00Pb0.01Sn0.03Se2.90Cl0.02,523,-231.1,16660,0.6917,0.000889764,0.68,10.1039/c4dt03432e
In4.00Pb0.01Sn0.03Se2.90Cl0.06,523,-233,8910,0.666,0.000483715,0.39,10.1039/c4dt03432e
Bi1.00Cu0.90Se1.00O1.00,523,189,44,0.914,1.57E-06,0.000899356,https://doi.org/10.1021/ja2091195
Bi1.00Cu0.93Se1.00O1.00,523,270,1760,1.1,0.000128304,0.06100272,https://doi.org/10.1021/ja2091195
Bi1.00Cu0.97Se1.00O1.00,523,203.7,1852,0.57,7.68E-05,0.08,https://doi.org/10.1021/ja2091195
Bi1.00Cu1.00Se1.00O1.00,523,387,191,0.4966,2.86E-05,0.03012661,https://doi.org/10.1021/ja2091195
Ge0.99Te1.00,523,85.4,369792,3.71,0.002696952,0.3801903,10.1039/C9EE00317G
Ge1.04Te1.00,523,137,211000,3.06,0.003960259,0.676867796,10.1039/C9EE00317G
Ge1.00Te1.00,523,97,296450,3.71,0.002789298,0.393208323,10.1039/C9EE00317G
Cu2.82Ag0.18Sb1.00Se4.00,523,395.3,6622,0.85,0.001035,0.64,10.1039/c9ta05115e
Cu2.88Ag0.12Sb1.00Se4.00,523,397,6877,1,0.001083877,0.56,10.1039/c9ta05115e
Cu2.94Ag0.06Sb1.00Se4.00,523,403,5134,1.1,0.000833808,0.39,10.1039/c9ta05115e
Cu3.00Sb1.00Se4.00,523,379,4518,1.24,0.00064897,0.273718814,10.1039/c9ta05115e
Tl1.00Cr5.00Se8.00,523,267,5400,0.705,0.000384961,0.2855807,dx.doi.org/10.1021/cm400365q
Bi0.92Ag0.08Cu1.00Se1.00O1.00,523,255,1880,0.44,0.000122247,0.14530723,http://dx.doi.org/10.1016/j.jeurceramsoc.2014.09.015
Bi0.94Ag0.06Cu1.00Se1.00O1.00,523,274,1580,0.492,0.00011862,0.126094109,http://dx.doi.org/10.1016/j.jeurceramsoc.2014.09.015
Bi0.96Ag0.04Cu1.00Se1.00O1.00,523,280.2,1596,0.52,0.000125305,0.126028131,http://dx.doi.org/10.1016/j.jeurceramsoc.2014.09.015
Bi0.90Ag0.10Cu1.00Se1.00O1.00,523,266,1900,0.52,0.000134436,0.135211995,http://dx.doi.org/10.1016/j.jeurceramsoc.2014.09.015
Bi1.00Cu1.00Se1.00O1.00,523,408.3,848,0.57,0.000141369,0.129712385,http://dx.doi.org/10.1016/j.jeurceramsoc.2014.09.015
Bi2.00S2.79Se0.21,523,-553,292,0.55,8.93E-05,0.084912595,https://doi.org/10.1007/s11467-018-0845-4
Bi2.00S2.85Se0.15,523,-508,530,0.57,0.000136774,0.12549607,https://doi.org/10.1007/s11467-018-0845-4
Bi2.00S2.91Se0.09,523,-483,464,0.585,0.000108246,0.09677386,https://doi.org/10.1007/s11467-018-0845-4
Bi2.00S3.00,523,-627,72.4,0.505,2.85E-05,0.029477046,https://doi.org/10.1007/s11467-018-0845-4
Bi2.00Te1.95Se1.05,523,-189.44,35850,0.907,0.00129,0.76,https://doi.org/10.1007/s11664-020-08258-9
Bi2.00Te2.01Se0.99,523,-176,39210,0.96,0.001214569,0.67,https://doi.org/10.1007/s11664-020-08258-9
Bi2.00Te2.10Se0.90,523,-179.5,43500,1.055,0.001401581,0.7,https://doi.org/10.1007/s11664-020-08258-9
Bi2.00Te2.55Se0.45,523,-157.6,56812,1.168,0.001411083,0.6282,https://doi.org/10.1007/s11664-020-08258-9
Bi2.00Te2.70Se0.30,523,-151.8,66050,1.315,0.001522006,0.61,https://doi.org/10.1007/s11664-020-08258-9
Ag0.40Sb1.10Pb19.60Te18.80,523,-68.8,17450,1.378,8.26E-05,0.031349078,https://doi.org/10.1016/j.jallcom.2004.08.049
Ag0.50Sb1.10Pb19.60Te18.80,523,-49.6,26110,1.474,6.42E-05,0.02279158,https://doi.org/10.1016/j.jallcom.2004.08.049
Ag0.80Sb0.80Pb18.30Te20.00,523,-294,8800,0.76,0.000760637,0.523438219,https://doi.org/10.1016/j.jallcom.2004.08.049
Ag0.90Sb0.90Pb18.30Te19.90,523,-296,8625,0.858,0.000755688,0.460634993,https://doi.org/10.1016/j.jallcom.2004.08.049
Ag1.10Sb0.80Pb15.50Te22.60,523,320,2685,0.968,0.000274944,0.148549289,https://doi.org/10.1016/j.jallcom.2004.08.049
Ag1.20Sb0.80Pb14.90Te22.70,523,280,1583,1.01,0.000124107,0.064265411,https://doi.org/10.1016/j.jallcom.2004.08.049
Ag1.30Sb0.90Pb15.70Te22.00,523,-171.2,913,1.01,2.68E-05,0.013856662,https://doi.org/10.1016/j.jallcom.2004.08.049
Sn0.98In0.02Se1.00,523,492,70,0.631,1.69E-05,0.014044315,https://doi.org/10.1016/j.jallcom.2016.01.190
Sn1.00Se1.00,523,371,336,0.6,4.62E-05,0.040312296,https://doi.org/10.1016/j.jallcom.2016.01.190
Sn0.87Mn0.10Bi0.03Te1.00,523,94,179200,3.656,0.001583411,0.226510957,https://doi.org/10.1016/j.jmst.2020.12.063
Sn0.91Mn0.08Bi0.01Te1.00,523,88,216000,3.7849,0.001672704,0.231135352,https://doi.org/10.1016/j.jmst.2020.12.063
Sn1.00Te1.00,523,48,330000,8.3,0.00076032,0.04790932,https://doi.org/10.1016/j.jmst.2020.12.063