Formula,temperature(K),seebeck_coefficient(μV/K),electrical_conductivity(S/m),thermal_conductivity(W/mK),power_factor(W/mK2),ZT,reference
Cu1.00Ag1.00Te0.70Se0.30,443,246.2,6675,0.3096,0.000404601,0.578935447,https://doi.org/10.1021/acsami.1c20333
Tl9.00Bi0.95Te6.00,443,182.2,24460,0.52,0.000811995,0.691757029,https://doi.org/10.1021/cm402593f
Tl9.00Bi0.96Te6.00,443,190,23500,0.52,0.00084835,0.722728942,https://doi.org/10.1021/cm402593f
Tl9.00Bi0.97Te6.00,443,195,22000,0.474,0.00083655,0.781838924,https://doi.org/10.1021/cm402593f
Tl9.00Bi0.98Te6.00,443,217.4,17545,0.42,0.000829225,0.874635071,https://doi.org/10.1021/cm402593f
Tl9.00Bi0.99Te6.00,443,237.2,14000,0.4085,0.000787694,0.854218692,https://doi.org/10.1021/cm402593f
Tl9.00Bi1.00Te6.00,443,260,10200,3.8,0.00068952,0.080383516,https://doi.org/10.1021/cm402593f
Ag1.00Sb0.95Mn0.05Te2.00,444,108.42,66133,1.082,0.000777387,0.31900151,https://doi.org/10.1021/acs.inorgchem.9b00852
Ag1.00Sb0.99Mn0.01Te2.00,444,123.86,40933,0.952,0.000627965,0.292874627,https://doi.org/10.1021/acs.inorgchem.9b00852
Tl8.95Bi1.05Te6.00,444,-103,570,0.34,6.05E-06,0.00789684,https://doi.org/10.1021/cm402593f
Tl9.00Sb0.98Te6.00,444,159,32455,0.586,0.000820495,0.6295,https://doi.org/10.1021/cm402593f
Mg2.00Sn0.99Sb0.01,444,-170.09,138596,4.0755,0.004009667,0.436827862,https://doi.org/10.1021/acsami.0c17462
Mg2.00Sn0.99Sb0.01,444,-133,289400,4.7799,0.005119197,0.475516913,https://doi.org/10.1021/acsami.0c17462
Mg2.00Sn0.98Sb0.02,444,-99.22,346429,5.7296,0.003410458,0.264284293,https://doi.org/10.1021/acsami.0c17462
Tl8.97Sb1.03Te6.00,445,181,25138,0.515,0.000823546,0.711607724,https://doi.org/10.1021/cm402593f
Tl8.98Sb1.02Te6.00,445,166.5,27730,0.5,0.000768738,0.684176813,https://doi.org/10.1021/cm402593f
Tl8.99Sb1.01Te6.00,445,165.7,31743,0.57,0.000871551,0.680421677,https://doi.org/10.1021/cm402593f
Bi0.84Pb0.08Yb0.08Cu1.00Se1.00O1.00,446,107.89,22326,0.6554,0.00025988,0.176848642,https://doi.org/10.1021/acsami.1c19266
Bi0.88Pb0.06Yb0.06Cu1.00Se1.00O1.00,446,132.57,30968,0.5732,0.000544257,0.423479457,https://doi.org/10.1021/acsami.1c19266
Bi0.80Pb0.10Yb0.10Cu1.00Se1.00O1.00,446,102.96,24000,0.6973,0.000254418,0.162728456,https://doi.org/10.1021/acsami.1c19266
Bi0.96Pb0.02Yb0.02Cu1.00Se1.00O1.00,446,157,21600,0.7438,0.000532418,0.319250614,https://doi.org/10.1021/acsami.1c19266
Bi1.00Cu1.00Se1.00O1.00,446,140.13,5598,0.5446,0.000109925,0.090022767,https://doi.org/10.1021/acsami.1c19266
Tl9.00Sb0.97Te6.00,447,155,32000,0.612,0.0007688,0.56152549,https://doi.org/10.1021/cm402593f
Ag3.40Mo9.00Se11.00,447,87,48800,1.225,0.000369367,0.134781337,https://doi.org/10.1063/1.3579261
Ag3.50Mo9.00Se11.00,447,89.6,48100,1.18,0.000386154,0.146280559,https://doi.org/10.1063/1.3579261
Ag3.70Mo9.00Se11.00,447,93.6,47100,1.162,0.000412641,0.158735476,https://doi.org/10.1063/1.3579261
Ag3.80Mo9.00Se11.00,447,118,30300,0.84,0.000421897,0.2226,https://doi.org/10.1063/1.3579261
Ag3.90Mo9.00Se11.00,447,124.6,25285,0.77,0.000392554,0.227885053,https://doi.org/10.1063/1.3579261
Cu2.82Ag0.18Sb1.00Se4.00,448,408,5851,1,0.000973981,0.43,10.1039/c9ta05115e
Cu2.88Ag0.12Sb1.00Se4.00,448,410,6667,1.19,0.001120723,0.421919134,10.1039/c9ta05115e
Cu2.94Ag0.06Sb1.00Se4.00,448,435,4384,1.31,0.000829562,0.283697676,10.1039/c9ta05115e
Cu3.00Sb1.00Se4.00,448,427,2803,1.5,0.000511068,0.152639032,10.1039/c9ta05115e
Zn0.95In0.05Sb3.00,448,177.3,23100,0.81,0.000726155,0.401626579,https://doi.org/10.1016/j.intermet.2004.02.030
Cu2.02Cd0.97Sn1.00Se4.00,450,183.4,6552,1.555,0.00022038,0.063775617,10.1002/adma.200900409
Cu2.05Cd0.95Sn1.00Se4.00,450,147.4,16236,1.394,0.000352756,0.113873783,10.1002/adma.200900409
Cu2.10Cd0.90Sn1.00Se4.00,450,138.6,23908,1.224,0.000459272,0.168849898,10.1002/adma.200900409
Cu2.00Cd1.00Sn1.00Se4.00,450,244.8,3328,1.74,0.000199437,0.051578583,10.1002/adma.200900409
Cu2.00Se1.00,450,126,47255,0.856,0.00075022,0.394391555,10.1002/adma.201302660
Cu2.00Se0.92I0.08,450,209,9353,0.518,0.000408548,0.354916558,10.1002/adma.201302660
Cu2.00Se0.96I0.04,450,129,36963,0.79,0.000615101,0.350374149,10.1002/adma.201302660
Sr0.11Ba0.18Co4.00Sb12.09,450,-123,309722,4.16,0.004685784,0.506875688,10.1007/s00339-010-5711-3
Sr0.16Yb0.03Co4.00Sb11.82,450,-145,225455,3.63,0.004740191,0.58762703,10.1007/s00339-010-5711-3
Sr0.21Co4.00Sb12.25,450,-156,178636,4.11,0.004347286,0.475980186,10.1007/s00339-010-5711-3
Sr0.21Yb0.03Co4.00Sb12.12,450,-136,260000,3.85,0.00480896,0.562086234,10.1007/s00339-010-5711-3
Eu1.00Zn0.50Cd0.52Sb2.00,450,217,24566,1.2,0.001156788,0.43379564,10.1039/B916346H
Eu1.00Zn0.70Cd0.32Sb2.00,450,187.6,44270,1.409,0.001558028,0.497595805,10.1039/B916346H
Eu1.00Zn0.90Cd0.12Sb2.00,450,161.5,81400,1.75,0.002123095,0.545938753,10.1039/B916346H
Eu1.00Cd2.00Sb2.00,450,286.4,8285,0.96,0.000679577,0.318551622,10.1039/B916346H
Eu1.00Zn2.00Sb2.00,450,151.5,85000,1.8,0.001950941,0.487735313,10.1039/B916346H
Pb1.00Te1.00Ag2.00,450,-117.3,50213,0.502,0.000690895,0.619328392,10.1039/c1jm13888j
Pb1.00Te1.00Ag2.00,450,-120.3,42089,0.53,0.000609116,0.517173789,10.1039/c1jm13888j
Pb1.00Te1.00Ag2.00,450,-140.6,37230,0.555,0.000735976,0.6019,10.1039/c1jm13888j
Ag1.00Bi0.97Pb0.03Se2.12,450,371.43,4864,0.617,0.000671039,0.489412292,https://doi.org/10.1021/acs.chemmater.0c00481
Ag1.00Bi0.98Pb0.02Se2.12,450,400.6,4150,0.621,0.000665993,0.482603981,https://doi.org/10.1021/acs.chemmater.0c00481
Ag1.00Bi0.99Pb0.01Se2.12,450,482.3,1095,0.55,0.000254712,0.208400361,https://doi.org/10.1021/acs.chemmater.0c00481
Ag1.00Bi1.00Se2.12,450,573,230.25,0.653,7.56E-05,0.05209646,https://doi.org/10.1021/acs.chemmater.0c00481
Gd2.75Se4.00,450,-122.1,7610,0.8377,0.000113453,0.060945267,https://doi.org/10.1021/acs.chemmater.0c03581
Gd2.79Se4.00,450,-86.2,19360,1.283,0.000143853,0.050455178,https://doi.org/10.1021/acs.chemmater.0c03581
Gd2.84Se4.00,450,-77.9,31600,1.287,0.000191762,0.067049565,https://doi.org/10.1021/acs.chemmater.0c03581
Gd2.00Se2.92,450,-99.46,30316,1.6038,0.000299895,0.084145542,https://doi.org/10.1021/acs.chemmater.0c03581
Gd2.00Se2.94,450,-109.4,30650,1.774,0.00036683,0.093051638,https://doi.org/10.1021/acs.chemmater.0c03581
Gd2.00Se2.98,450,-147.46,34430,1.71,0.000748661,0.197016176,https://doi.org/10.1021/acs.chemmater.0c03581
Cu1.55S1.00,450,19.12,488571,4.757,0.000178609,0.016895958,https://doi.org/10.1021/acs.chemmater.1c01856
Cu1.50S1.00,450,18.3,513462,5.12,0.000171953,0.015113082,https://doi.org/10.1021/acs.chemmater.1c01856
Cu1.60S1.00,450,24,385577,4.3185,0.000222092,0.023142656,https://doi.org/10.1021/acs.chemmater.1c01856
Cu2.00Se1.00,450,98.4,84343,1.22,0.000816656,0.301225632,https://doi.org/10.1021/acs.chemmater.7b01687
Cu2.00Se0.88S0.12,450,150.66,31629,0.694,0.000717929,0.465515805,https://doi.org/10.1021/acs.chemmater.7b01687
Cu2.00Se0.92S0.08,450,138.49,46648,0.794,0.000894684,0.50706294,https://doi.org/10.1021/acs.chemmater.7b01687
Cu2.00Se0.94S0.06,450,131.9,52188,0.86,0.000907946,0.47508827,https://doi.org/10.1021/acs.chemmater.7b01687
Cu2.00Se0.96S0.04,450,121.05,57192,0.942,0.00083804,0.400337693,https://doi.org/10.1021/acs.chemmater.7b01687
Cu2.00Se0.98S0.02,450,120.39,62782,0.964,0.000909947,0.424767671,https://doi.org/10.1021/acs.chemmater.7b01687
Co1.00As1.00Sb1.00,450,-132.3,28361,2.8885,0.000496411,0.07733594,https://doi.org/10.1021/acs.chemmater.7b05170
Yb1.00Cd1.10Zn0.90Sb2.00,450,102.4,108700,1.52,0.001139802,0.31,https://doi.org/10.1021/acs.chemmater.8b02155
Yb1.00Cd1.20Zn0.80Sb2.00,450,110.2,99700,1.463,0.001210761,0.378,https://doi.org/10.1021/acs.chemmater.8b02155
Yb1.00Cd1.30Zn0.70Sb2.00,450,136.29,79253,1.3965,0.001472122,0.474367872,https://doi.org/10.1021/acs.chemmater.8b02155
Yb1.00Cd1.40Zn0.60Sb2.00,450,157.1,63012,1.46,0.001555162,0.498,https://doi.org/10.1021/acs.chemmater.8b02155
Yb1.00Cd1.50Zn0.50Sb2.00,450,149,73113,1.42,0.001623182,0.57,https://doi.org/10.1021/acs.chemmater.8b02155
Yb1.00Cd1.60Zn0.40Sb2.00,450,155.05,67582,1.4772,0.001624705,0.54,https://doi.org/10.1021/acs.chemmater.8b02155
Yb1.00Cd1.70Zn0.30Sb2.00,450,160,60200,1.54,0.00154112,0.462,https://doi.org/10.1021/acs.chemmater.8b02155
Yb1.00Cd1.80Zn0.20Sb3.00,450,165.1,54813,1.575,0.001494093,0.426883801,https://doi.org/10.1021/acs.chemmater.8b02155
Yb1.00Cd1.90Zn0.10Sb2.00,450,166.6,51250,1.6452,0.001422472,0.389078898,https://doi.org/10.1021/acs.chemmater.8b02155
Yb1.00Cd2.00Sb2.00,450,125.5,89080,1.448,0.001403032,0.436025222,https://doi.org/10.1021/acs.chemmater.8b02155
Bi0.23Sb0.77Te3.00,450,220.32,32706,1.0523,0.001587579,0.678903772,https://doi.org/10.1021/acsaem.1c01830
Er0.01Bi0.23Sb0.77Te3.00,450,222.11,33471,1.0726,0.00165122,0.692754943,https://doi.org/10.1021/acsaem.1c01830
Er0.02Bi0.23Sb0.77Te3.00,450,222.11,35000,0.9486,0.00172665,0.819093844,https://doi.org/10.1021/acsaem.1c01830
Er0.03Bi0.23Sb0.77Te3.00,450,221.42,35526,0.985,0.001741727,0.795712696,https://doi.org/10.1021/acsaem.1c01830
Bi0.92Pb0.04Yb0.04Cu1.00Se1.00O1.00,450,161.84,13617,0.6446,0.000356659,0.248986264,https://doi.org/10.1021/acsami.1c19266
Mg1.00Ag1.00Sb1.00,450,206.36,36909,0.9705,0.001571749,0.728786453,https://doi.org/10.1021/cm5041826
Mg1.00Ag1.00Sb0.98In0.01,450,186.18,67207,1.2754,0.002329596,0.82195239,https://doi.org/10.1021/cm5041826
Mg1.00Ag1.00Sb0.98In0.02,450,175.09,64144,1.33607,0.002075,0.69589,https://doi.org/10.1021/cm5041826
Mg1.00Ag1.00Sb0.99In0.01,450,204.9,41050,1.0164,0.001723444,0.8,https://doi.org/10.1021/cm5041826
Mg1.00Ag1.00Sb0.99In0.01,450,200.72,51636,1.013,0.002080338,0.933,https://doi.org/10.1021/cm5041826
Bi0.48Sb1.52Te3.00,450,211.82,37584,1.72,0.001686308,0.441185259,https://doi.org/10.1021/acsami.1c05525
Tm1.00Cu1.00Te2.00,457,102.6,66864,1.323722655,0.000703861,0.243,10.1002/chem.201404453
Bi2.00Te3.00,458,-155.03,83333,0.8682,0.00200285,1.038,http://dx.doi.org/10.1016/j.pnsc.2013.06.007
Ce0.20Bi1.80Te3.00,458,-152.58,67400,0.566,0.001569116,1.242,http://dx.doi.org/10.1016/j.pnsc.2013.06.007
Sm0.20Bi1.80Te3.00,458,-154.8,56600,0.69,0.001356308,0.92,http://dx.doi.org/10.1016/j.pnsc.2013.06.007
Y0.20Bi1.80Te3.00,458,-150,66600,0.74,0.0014985,0.925,http://dx.doi.org/10.1016/j.pnsc.2013.06.007
Ba7.97Ga15.95Sn30.10,460,362.3,11183,0.866792943,0.001467895,0.779,https://doi.org/10.1021/acs.chemmater.5b00025
Ba8.01Ga15.83Zn0.02Sn30.15,460,479.17,4306,0.778,0.000988674,0.584563238,https://doi.org/10.1021/acs.chemmater.5b00025
Ba8.01Ga15.88Zn0.01Sn30.11,460,437.68,6118,0.819945432,0.001171987,0.6575,https://doi.org/10.1021/acs.chemmater.5b00025
Ba8.01Ga15.89Zn0.01Sn30.10,460,391,11429,0.8714,0.001747277,0.922363319,https://doi.org/10.1021/acs.chemmater.5b00025
Ba8.00Ga15.88Zn0.01Sn30.12,460,389.1,13000,0.885702293,0.001968185,1.0222,https://doi.org/10.1021/acs.chemmater.5b00025
Cs1.00Nd2.00Ag3.00Te5.00,462,135.78,195.6,0.3489,3.61E-06,0.004775089,https://doi.org/10.1021/ic5007132
Cs1.00Pr2.00Ag3.00Te5.00,462,133.94,98.53,0.6159,1.77E-06,0.001325931,https://doi.org/10.1021/ic5007132
Cs1.00Sm2.00Ag3.00Te5.00,462,177.78,95.59,0.5213,3.02E-06,0.002677519,https://doi.org/10.1021/ic5007132
Cs1.00Tb2.00Ag3.00Te5.00,462,115.6,281.5,0.405,3.76E-06,0.004291222,https://doi.org/10.1021/ic5007132
Sr14.10Ga29.60Ge56.30,463,-140.5,54450,1.51,0.001074857,0.329575239,10.1063/1.2194187
Sr14.50Ga29.20Ge56.30,463,-130,70237,1.572,0.001187005,0.349607795,10.1063/1.2194187
Ba8.03Cu5.00Ge40.97,465,-125,42120,1.27,0.000658125,0.240967028,10.1103/PhysRevB.87.115206
Ba8.00Cu5.00Si25.00Ge16.00,465,-75.5,100000,1.87,0.000570025,0.141744184,10.1103/PhysRevB.87.115206
Ba8.02Cu4.98Si35.00Ge5.99,466,-65.3,121200,2.19,0.000516808,0.109969129,10.1103/PhysRevB.87.115206
Ba8.04Cu4.99Si18.00Ge22.98,466,-162.65,27400,1.307,0.000724868,0.258445531,10.1103/PhysRevB.87.115206
Ba8.04Cu4.90Si3.23Ge37.83,466,-89.8,77600,1.55,0.00062577,0.188134573,10.1103/PhysRevB.87.115206
Ba8.07Cu4.89Si41.03,466,-60,143000,2.715,0.0005148,0.089,10.1103/PhysRevB.87.115206
Ba8.00Cu5.04Si13.01Ge27.96,466,-91.8,74300,1.87,0.000626144,0.156033729,10.1103/PhysRevB.87.115206
Ba8.00Cu5.18Si9.98Ge30.85,466,-101,65700,1.68,0.000670206,0.185902295,10.1103/PhysRevB.87.115206
Sr15.00Ga29.50Ge55.60,468,-184,30610,1.045,0.001036332,0.4633,10.1063/1.2194187
Mg2.99Na0.01Sb2.00,468,164,17660,1.156,0.000474983,0.192294301,https://doi.org/10.1016/j.actamat.2015.04.023
Ag0.97Cu1.00Se1.00,468,89.17,43509,1.67,0.000345953,0.07,https://doi.org/10.1021/ic502102e
Mg3.00Sb1.60Bi0.40,470,211,2500,0.66,0.000111303,0.079260871,10.1039/c3ra40457a
Mg3.00Sb1.80Bi0.20,470,357,559,0.91,7.12E-05,0.036796347,10.1039/c3ra40457a
Mg3.00Sb1.90Bi0.10,470,340,500,0.98,5.78E-05,0.027720408,10.1039/c3ra40457a
Mg3.00Sb2.00,470,261,392,1.13,2.67E-05,0.011106737,10.1039/c3ra40457a
Sn0.92Ge0.04As0.04Te1.00,470,48.05,522222,6.628,0.001205707,0.2192,https://doi.org/10.1021/acs.chemmater.1c03198
Ge0.55Pb0.45Te0.20Se0.80,470,280.625,2022,0.78,8.97E-05,0.0488,https://doi.org/10.1021/acs.chemmater.6b02772
Ge0.55Pb0.45Te0.30Se0.70,470,338.75,3571,0.6477,0.00051,0.37007874,https://doi.org/10.1021/acs.chemmater.6b02772
Ge0.55Pb0.45Te0.40Se0.60,470,316.25,5500,0.791,0.000625,0.3595,https://doi.org/10.1021/acs.chemmater.6b02772
Ge0.55Pb0.45Te0.50Se0.50,470,300.62,6875,0.529,0.00062131,0.58,https://doi.org/10.1021/acs.chemmater.6b02772
Ge0.55Pb0.45Te0.80Se0.20,470,126.7,23904,0.968,0.000383728,0.18,https://doi.org/10.1021/acs.chemmater.6b02772
Ag0.94Cu1.00Se1.00,470,112.1,44930,1.241,0.000564609,0.257,https://doi.org/10.1021/ic502102e
Ta0.84Ti0.16Fe1.00Sb1.00,470,142,258200,4.74,0.005206345,0.51624094,https://doi.org/10.1038/s41467-018-08223-5
Ta0.88Ti0.12Fe1.00Sb1.00,470,148.4,244011,4.95,0.005373747,0.513,https://doi.org/10.1038/s41467-018-08223-5
Ta0.92Ti0.08Fe1.00Sb1.00,470,174.2,182600,5.465,0.005541114,0.4785,https://doi.org/10.1038/s41467-018-08223-5
Ta0.96Ti0.04Fe1.00Sb1.00,470,220.8,76039,5.703,0.003707102,0.3075,https://doi.org/10.1038/s41467-018-08223-5
Ta0.98Ti0.02Fe1.00Sb1.00,470,237,51500,6.8045,0.002879,0.199804636,https://doi.org/10.1038/s41467-018-08223-5
Cu1.00I0.00Bi2.00Te3.00,470,-169.48,84100,1.4519,0.002415644,0.781977143,https://doi.org/10.1021/acsami.0c09529
Ge0.55Pb0.45Te1.00,472,84.47,48000,2.031,0.000342489,0.079593628,https://doi.org/10.1021/acs.chemmater.6b02772
Ca1.00Zn0.40Ag0.20Sb1.00,472,93.36,77844,1.143,0.000678495,0.280183527,https://doi.org/10.1021/acsami.1c01818
Ca1.00Zn1.40Ag0.20Sb1.00Li1.00,472,122.91,52953,1.037,0.000799954,0.364106347,https://doi.org/10.1021/acsami.1c01818
Ca1.00Zn1.40Ag0.20Sb1.00Li1.00,472,143.96,34759,0.8948,0.000720362,0.379985455,https://doi.org/10.1021/acsami.1c01818
Ca1.00Zn1.40Ag0.20Sb1.00Li1.00,472,147.1,34301,0.6933,0.000742219,0.50530422,https://doi.org/10.1021/acsami.1c01818
Ca1.00Zn1.40Ag0.20Sb1.00Li1.00,472,143.51,33592,0.9067,0.000691831,0.360145982,https://doi.org/10.1021/acsami.1c01818
In4.00Se2.32Cl0.03,473,-256.6,19471,0.907,0.00128204,0.668583131,10.1002/adma.201004739
In4.00Se2.67Cl0.03,473,-151.2,50000,0.683,0.001558,0.791615016,10.1002/adma.201004739
Cu3.00Sb0.85Ge0.15S4.00,473,163,38100,1.413,0.001012279,0.338859108,10.1021/acs.jpcc.6b09379
Cu3.00Sb0.93Ge0.07S4.00,473,225.5,16180,1.193,0.000822757,0.326206272,10.1021/acs.jpcc.6b09379
Cu3.00Sb0.95Ge0.05S4.00,473,268.3,8355,1.134,0.000601434,0.250862581,10.1021/acs.jpcc.6b09379
Cu3.00Sb0.97Ge0.03S4.00,473,329.1,4950,1.052,0.000536119,0.241049572,10.1021/acs.jpcc.6b09379
Cu3.00Sb0.99Ge0.01S4.00,473,404.4,2020,1.072,0.00033035,0.147,10.1021/acs.jpcc.6b09379
Cu3.00Sb0.90Ge0.10S4.00,473,201.7,21544,1.279,0.000876472,0.324137093,10.1021/acs.jpcc.6b09379
Cu3.00Sb1.00S4.00,473,603.3,316.2,1.0244,0.000115088,0.053139821,10.1021/acs.jpcc.6b09379
Mg2.00Cu3.00In3.00Te8.00,473,334.2,2275,2.075,0.000254094,0.057921171,https://doi.org/10.1021/acsaem.9b02004
Hf0.50Ti0.50Co1.00Sb0.80Sn0.20,473,212.45,40000,2.514,0.001824,0.339679494,10.1039/c2ee21554c
Hf0.70Ti0.30Co1.00Sb0.80Sn0.20,473,191,50600,2.81,0.001838,0.310722049,10.1039/c2ee21554c
Hf0.90Ti0.10Co1.00Sb0.80Sn0.20,473,176,68794,3.38,0.00212,0.29820872,10.1039/c2ee21554c
In4.00Pb0.01Sn0.03Se2.90Cl0.02,473,-229.4,13900,0.744,0.000731479,0.472,10.1039/c4dt03432e
In4.00Pb0.01Sn0.03Se2.90Cl0.06,473,-222,7700,0.72,0.000379487,0.52,10.1039/c4dt03432e
Zn0.85Cd0.15Sc0.02O1.03,473,-70,20000,5.75,9.80E-05,0.008061565,10.1039/c6ta03126a
Zn0.88Cd0.12Sc0.02O1.03,473,-93,38330,5.08,0.000331516,0.0298,10.1039/c6ta03126a
Zn0.95Cd0.05Sc0.02O1.03,473,-86,17300,8,0.000127951,0.007565091,10.1039/c6ta03126a
Zn0.90Cd0.10Sc0.01O1.01,473,-92,53542,5.7,0.000453179,0.037605947,10.1039/c6ta03126a
Zn0.90Cd0.10Sc0.02O1.03,473,-86.5,52000,5.5,0.000389077,0.033460622,10.1039/c6ta03126a
Zn0.90Cd0.10Sc0.03O1.04,473,-92.7,48333,5.62,0.000415339,0.034956508,10.1039/c6ta03126a
Zn0.90Cd0.10Sc0.04O1.06,473,-102,41146,5.7,0.000428083,0.035523377,10.1039/c6ta03126a
Zn1.00Sc0.02O1.03,473,-200,3500,26.083,0.00014,0.002538818,10.1039/c6ta03126a
Sn0.80Ge0.20Mn0.15Te1.00,473,84.8,156300,1.732,0.00112396,0.306947383,10.1039/c7cp04931e
Sn0.80Ge0.20Mn0.12Te1.00,473,78,175900,2.064,0.001070176,0.245248575,10.1039/c7cp04931e
Sn0.80Ge0.20Mn0.20Te1.00,473,92.4,130807,1.74,0.001116799,0.303589551,10.1039/c7cp04931e
Sn0.80Ge0.20Mn0.09Te1.00,473,74.1,186400,2.213,0.001023487,0.216,10.1039/c7cp04931e
Sn0.80Ge0.20Mn0.06Te1.00,473,69.4,210600,2.58,0.001014325,0.18595966,10.1039/c7cp04931e
Sn0.80Ge0.20Te1.00,473,53.7,329200,4.719,0.000949311,0.095152359,10.1039/c7cp04931e
Sn1.00Te1.00,473,44.1,434400,5.39,0.000844825,0.074137745,10.1039/c7cp04931e
Cu2.82Ag0.18Sb1.00Se4.00,473,411,5782,0.93,0.000976701,0.496752342,10.1039/c9ta05115e
Cu2.88Ag0.12Sb1.00Se4.00,473,408,6282,1.09,0.001045727,0.453787889,10.1039/c9ta05115e
Cu2.94Ag0.06Sb1.00Se4.00,473,439,4444,1.2,0.000856452,0.337584879,10.1039/c9ta05115e
Cu3.00Sb1.00Se4.00,473,409,3227,1.37,0.000539816,0.186374356,10.1039/c9ta05115e
Bi0.92Ag0.08Cu1.00Se1.00O1.00,473,221.49,1675,0.445,8.22E-05,0.087342212,http://dx.doi.org/10.1016/j.jeurceramsoc.2014.09.015
Bi0.94Ag0.06Cu1.00Se1.00O1.00,473,260.3,1470,0.497,9.96E-05,0.094791724,http://dx.doi.org/10.1016/j.jeurceramsoc.2014.09.015
Bi0.96Ag0.04Cu1.00Se1.00O1.00,473,275.2,1483,0.526,0.000112315,0.100998147,http://dx.doi.org/10.1016/j.jeurceramsoc.2014.09.015
Bi0.90Ag0.10Cu1.00Se1.00O1.00,473,235,1870,0.53,0.000103271,0.092164273,http://dx.doi.org/10.1016/j.jeurceramsoc.2014.09.015
Bi1.00Cu1.00Se1.00O1.00,473,424,589,0.6086,0.000105888,0.082295521,http://dx.doi.org/10.1016/j.jeurceramsoc.2014.09.015
Bi2.00Te3.00,473,-156.8,77300,0.9587,0.001900516,0.937670006,http://dx.doi.org/10.1016/j.pnsc.2013.06.007
Ce0.20Bi1.80Te3.00,473,-155.03,63090,0.5693,0.001516324,1.259830094,http://dx.doi.org/10.1016/j.pnsc.2013.06.007
Sm0.20Bi1.80Te3.00,473,-155.8,55600,0.7364,0.001349614,0.866876159,http://dx.doi.org/10.1016/j.pnsc.2013.06.007
Y0.20Bi1.80Te3.00,473,-152.13,62334,0.753,0.001442629,0.906193394,http://dx.doi.org/10.1016/j.pnsc.2013.06.007
Yb10.00La1.00Cd1.00Sb9.00,473,40.73,28800,0.8472,4.78E-05,0.026674513,https://doi.org/10.1002/asia.201200827
Bi2.00Te1.95Se1.05,473,-188.14,39450,0.908,0.0014,0.751,https://doi.org/10.1007/s11664-020-08258-9
Bi2.00Te2.01Se0.99,473,-173.77,44173,0.963,0.001333848,0.651,https://doi.org/10.1007/s11664-020-08258-9
Bi2.00Te2.10Se0.90,473,-174.5,48490,1.0535,0.001476533,0.688,https://doi.org/10.1007/s11664-020-08258-9
Bi2.00Te2.55Se0.45,473,-156.64,62900,1.139,0.00154332,0.640904633,https://doi.org/10.1007/s11664-020-08258-9
Bi2.00Te2.70Se0.30,473,-153,73550,1.27,0.00173,0.65,https://doi.org/10.1007/s11664-020-08258-9
Mg2.98Na0.03Sb2.00,473,109,41000,1.556,0.000487121,0.148077271,https://doi.org/10.1016/j.actamat.2015.04.023
Mg2.99Na0.01Sb2.00,473,134,29134,1.3,0.00052313,0.190338876,https://doi.org/10.1016/j.actamat.2015.04.023
Zn0.95In0.05Sb3.00,473,182.3,22700,0.805,0.000754396,0.443266035,https://doi.org/10.1016/j.intermet.2004.02.030
Zn0.90In0.14Sb3.00,473,202,13120,0.814,0.000535348,0.311080874,https://doi.org/10.1016/j.intermet.2004.02.030
Ag0.40Sb1.10Pb19.60Te18.80,473,-17.6,17208,1.456,5.33E-06,0.001731632,https://doi.org/10.1016/j.jallcom.2004.08.049