Formula,temperature(K),seebeck_coefficient(μV/K),electrical_conductivity(S/m),thermal_conductivity(W/mK),power_factor(W/mK2),ZT,reference
Cu1.60S1.00,350,16.75,404808,3.541,0.000113574,0.011225891,https://doi.org/10.1021/acs.chemmater.1c01856
Co1.00As1.00Sb1.00,350,-118,17720,2.819,0.000246733,0.030633788,https://doi.org/10.1021/acs.chemmater.7b05170
Yb1.00Cd1.10Zn0.90Sb2.00,350,86.3,135370,1.707,0.001008194,0.192,https://doi.org/10.1021/acs.chemmater.8b02155
Yb1.00Cd1.20Zn0.80Sb2.00,350,89.28,125000,1.67,0.000996365,0.22,https://doi.org/10.1021/acs.chemmater.8b02155
Yb1.00Cd1.30Zn0.70Sb2.00,350,109.69,98726,1.556,0.001187861,0.267192379,https://doi.org/10.1021/acs.chemmater.8b02155
Yb1.00Cd1.40Zn0.60Sb2.00,350,125.45,75926,1.67,0.001194901,0.250428311,https://doi.org/10.1021/acs.chemmater.8b02155
Yb1.00Cd1.50Zn0.50Sb2.00,350,121.03,91450,1.613,0.001339583,0.33,https://doi.org/10.1021/acs.chemmater.8b02155
Yb1.00Cd1.60Zn0.40Sb2.00,350,122.22,84470,1.6825,0.00126179,0.29,https://doi.org/10.1021/acs.chemmater.8b02155
Yb1.00Cd1.70Zn0.30Sb2.00,350,128.6,71800,1.76,0.001187426,0.248,https://doi.org/10.1021/acs.chemmater.8b02155
Yb1.00Cd1.80Zn0.20Sb2.00,350,133.74,64873,1.8435,0.001160344,0.220298491,https://doi.org/10.1021/acs.chemmater.8b02155
Yb1.00Cd1.90Zn0.10Sb2.00,350,137.32,61377,1.955,0.001157373,0.20720228,https://doi.org/10.1021/acs.chemmater.8b02155
Yb1.00Cd2.00Sb2.00,350,100.825,111511,1.6246,0.001133585,0.24421693,https://doi.org/10.1021/acs.chemmater.8b02155
Bi0.23Sb0.77Te3.00,350,244,44766,0.88037,0.002665189,1.059572681,https://doi.org/10.1021/acsaem.1c01830
Er0.01Bi0.23Sb0.77Te3.00,350,241.79,46228,0.8607,0.0027026,1.09900082,https://doi.org/10.1021/acsaem.1c01830
Er0.02Bi0.23Sb0.77Te3.00,350,236.15,49561,0.8009,0.002763859,1.207829718,https://doi.org/10.1021/acsaem.1c01830
Er0.03Bi0.23Sb0.77Te3.00,350,235.73,50322,0.8243,0.002796325,1.187327018,https://doi.org/10.1021/acsaem.1c01830
Bi0.92Pb0.04Yb0.04Cu1.00Se1.00O1.00,350,149,16410,0.7098,0.000364318,0.179644186,https://doi.org/10.1021/acsami.1c19266
Mg1.00Ag1.00Sb1.00,350,188.36,40909,1,0.00145143,0.508000654,https://doi.org/10.1021/cm5041826
Mg1.00Ag1.00Sb0.98In0.01,350,164.55,72072,1.2295,0.001951472,0.555522762,https://doi.org/10.1021/cm5041826
Mg1.00Ag1.00Sb0.98In0.02,350,146,81261,1.3426,0.001955,0.5068,https://doi.org/10.1021/cm5041826
Mg1.00Ag1.00Sb0.99In0.01,350,179.5,48545,1.095,0.001564132,0.516,https://doi.org/10.1021/cm5041826
Mg1.00Ag1.00Sb0.99In0.01,350,170.36,62523,0.9885,0.001814576,0.642490103,https://doi.org/10.1021/cm5041826
Ag3.40Mo9.00Se11.00,350,71,58000,1.26,0.000292378,0.0804,https://doi.org/10.1063/1.3579261
Ag3.50Mo9.00Se11.00,350,69.75,57600,1.22,0.000280228,0.080393164,https://doi.org/10.1063/1.3579261
Ag3.70Mo9.00Se11.00,350,74,55400,1.1804,0.00030337,0.089952253,https://doi.org/10.1063/1.3579261
Ag3.80Mo9.00Se11.00,350,92.4,35800,0.8527,0.000305652,0.125,https://doi.org/10.1063/1.3579261
Ag3.90Mo9.00Se11.00,350,98,30250,0.78,0.000290521,0.130361987,https://doi.org/10.1063/1.3579261
Bi0.48Sb1.52Te3.00,350,239.59,50000,1.222,0.002870168,0.822061327,https://doi.org/10.1021/acsami.1c05525
Ag2.00Se1.00,350,-114.03,240896,1.4945,0.003132332,0.733567298,https://doi.org/10.1021/acsami.1c08410
Mg2.00Sn0.99Sb0.01,350,-148.1,195614,5.1069,0.004290521,0.2940497,https://doi.org/10.1021/acsami.0c17462
Mg2.00Sn0.99Sb0.01,350,-113.2,349107,6,0.004473541,0.260956552,https://doi.org/10.1021/acsami.0c17462
Mg2.00Sn0.98Sb0.02,350,-86.29,460177,7.101,0.003426461,0.168886283,https://doi.org/10.1021/acsami.0c17462
Cu2.00Se1.00,353,96.05,100000,0.908,0.00092256,0.358660538,https://doi.org/10.1021/acs.chemmater.7b01687
Cu2.00Se0.88S0.12,353,127.3,50900,0.474,0.000824849,0.611,https://doi.org/10.1021/acs.chemmater.7b01687
Cu2.00Se0.92S0.08,353,116.12,77315,0.586,0.001042504,0.627993146,https://doi.org/10.1021/acs.chemmater.7b01687
Cu2.00Se0.94S0.06,353,111.84,87895,0.654,0.001099407,0.593410798,https://doi.org/10.1021/acs.chemmater.7b01687
Cu2.00Se0.96S0.04,353,104.28,91758,0.712,0.000997806,0.494698616,https://doi.org/10.1021/acs.chemmater.7b01687
Cu2.00Se0.98S0.02,353,102.63,98235,0.742,0.001034701,0.49224998,https://doi.org/10.1021/acs.chemmater.7b01687
Cu2.00Se1.00,359,104.4,82534,0.73,0.000899568,0.442390181,10.1002/adma.201302660
Cu2.00Se0.92I0.08,359,191,8986,0.14,0.000327818,0.840619696,10.1002/adma.201302660
Cu2.00Se0.96I0.04,359,115,40033,0.41,0.000529436,0.463579699,10.1002/adma.201302660
Ag2.00Se0.50Te0.50,360,-101,64587,0.667,0.000658852,0.355602272,https://doi.org/10.1021/acs.inorgchem.1c01563
Ag2.00Se0.60Te0.40,360,-113,79266,0.737,0.001012148,0.494400433,https://doi.org/10.1021/acs.inorgchem.1c01563
Ag2.00Se0.80Te0.20,360,-127,100825,0.818,0.001626206,0.715689869,https://doi.org/10.1021/acs.inorgchem.1c01563
Ag2.00Se0.90Te0.10,360,-133.8,105413,0.896,0.00188715,0.758229874,https://doi.org/10.1021/acs.inorgchem.1c01563
Ag2.00Se0.98,361,-97.82,253770,1.466,0.002428262,0.59795545,https://doi.org/10.1021/acsami.1c18483
Ag2.00Se1.00,361,-126,162800,1.048,0.002584613,0.894,https://doi.org/10.1021/acsami.1c18483
Ag2.00Se1.00,362,-98.24,233115,1.3072,0.002249816,0.623036455,https://doi.org/10.1021/acsami.1c18483
Ag2.00Se1.01,362,-137.23,135738,1.1243,0.002556228,0.823049456,https://doi.org/10.1021/acsami.1c18483
Ag2.00Se1.02,362,-135.53,144590,1.147,0.002655884,0.838212797,https://doi.org/10.1021/acsami.1c18483
Ag2.00Se1.03,362,-137.23,131311,1.166,0.002472858,0.767731315,https://doi.org/10.1021/acsami.1c18483
Ag2.00Se1.04,362,-141.4,126300,1.0797,0.002525237,0.846657264,https://doi.org/10.1021/acsami.1c18483
Ag2.00Se1.06,362,-137.8,129800,1.064,0.002464751,0.838571446,https://doi.org/10.1021/acsami.1c18483
Tm1.00Cu1.00Te2.00,363,83.3,86200,1.5,0.000598132,0.144748021,10.1002/chem.201404453
Cu1.00Ag1.00Te0.50Se0.50,363,137.5,9413,0.4446,0.000177965,0.145301675,https://doi.org/10.1021/acsami.1c20333
Cu1.00Ag1.00Te0.60Se0.40,363,222.28,8671,0.388,0.00042842,0.400815827,https://doi.org/10.1021/acsami.1c20333
Cu1.00Ag1.00Te0.70Se0.30,363,254.08,8503,0.3317,0.000548925,0.600723047,https://doi.org/10.1021/acsami.1c20333
Cu2.00Se1.00,365,107.4,76750,0.67,0.000885293,0.482286392,10.1002/adma.201302660
Cu2.00Se0.92I0.08,365,154.8,10657,0.248,0.000255374,0.375853036,10.1002/adma.201302660
Cu2.00Se0.96I0.04,365,120,34927,0.35,0.000502949,0.524503749,10.1002/adma.201302660
Bi2.00Te3.00,366,-126.53,32338,0.9178,0.000517726,0.206458708,https://doi.org/10.1021/acsami.1c00355
Bi1.94Nb0.06Te3.00,366,-97.4,77647,0.8695,0.000736618,0.310065962,https://doi.org/10.1021/acsami.1c00355
Bi1.92Nb0.08Te3.00,366,-103.51,113961,0.8395,0.001221015,0.532330382,https://doi.org/10.1021/acsami.1c00355
Bi1.90Nb0.10Te3.00,366,-106.3,64902,0.803,0.000733372,0.334264418,https://doi.org/10.1021/acsami.1c00355
Sr14.10Ga29.60Ge56.30,367,-125.7,61474,1.465,0.000971319,0.24,10.1063/1.2194187
Sr14.50Ga29.20Ge56.30,367,-113.89,81502,1.6,0.001057157,0.242485366,10.1063/1.2194187
Ba1.00Dy1.00Co4.00O7.00,368,142.9,77,0.613,1.50E-06,0.0008,https://doi.org/10.1063/1.3663526
Ba1.00Er1.00Co4.00O7.00,368,132,94,0.624,1.60E-06,0.0009,https://doi.org/10.1063/1.3663526
Ba1.00Ho1.00Co4.00O7.00,368,134,87,0.58,1.50E-06,0.00087,https://doi.org/10.1063/1.3663526
Ba1.00Lu1.00Co4.00O7.00,368,128,99,0.59,1.60E-06,0.001011698,https://doi.org/10.1063/1.3663526
Ba1.00Tm1.00Co4.00O7.00,368,130,108,0.5567,1.75E-06,0.00113,https://doi.org/10.1063/1.3663526
Mg2.99Na0.01Sb2.00,370,139,16444,1.379,0.000317715,0.085246101,https://doi.org/10.1016/j.actamat.2015.04.023
Ge0.55Pb0.45Te0.20Se0.80,370,391.25,2821,0.742,8.38E-05,0.039,https://doi.org/10.1021/acs.chemmater.6b02772
Ge0.55Pb0.45Te0.30Se0.70,370,271.875,5288,0.6655,0.000494,0.274650639,https://doi.org/10.1021/acs.chemmater.6b02772
Ge0.55Pb0.45Te0.40Se0.60,370,257.5,8070,0.799,0.000535091,0.247789527,https://doi.org/10.1021/acs.chemmater.6b02772
Ge0.55Pb0.45Te0.50Se0.50,370,249,10000,0.6,0.00062001,0.4,https://doi.org/10.1021/acs.chemmater.6b02772
Ge0.55Pb0.45Te0.80Se0.20,370,100,31915,0.9955,0.00031915,0.118619287,https://doi.org/10.1021/acs.chemmater.6b02772
Ta0.84Ti0.16Fe1.00Sb1.00,370,118.4,339300,5.168,0.00477,0.342,https://doi.org/10.1038/s41467-018-08223-5
Ta0.88Ti0.12Fe1.00Sb1.00,370,125.4,325500,5.45,0.00514,0.348,https://doi.org/10.1038/s41467-018-08223-5
Ta0.92Ti0.08Fe1.00Sb1.00,370,150,234400,5.985,0.005274,0.331,https://doi.org/10.1038/s41467-018-08223-5
Ta0.96Ti0.04Fe1.00Sb1.00,370,194.48,80100,6.365,0.003,0.178,https://doi.org/10.1038/s41467-018-08223-5
Ta0.98Ti0.02Fe1.00Sb1.00,370,207.6,49000,7.725,0.00211179,0.101147235,https://doi.org/10.1038/s41467-018-08223-5
Ca1.00Zn0.40Ag0.20Sb1.00,371,74.78,101563,1.164,0.000567945,0.181020338,https://doi.org/10.1021/acsami.1c01818
Ca1.00Zn1.40Ag0.20Sb1.00Li1.00,371,102.31,69519,1.0489,0.000727679,0.257382793,https://doi.org/10.1021/acsami.1c01818
Ca1.00Zn1.40Ag0.20Sb1.00Li1.00,371,119.33,45139,0.91,0.000642764,0.262049739,https://doi.org/10.1021/acsami.1c01818
Ca1.00Zn1.40Ag0.20Sb1.00Li1.00,371,122,44070,0.687,0.000655938,0.354225551,https://doi.org/10.1021/acsami.1c01818
Ca1.00Zn1.40Ag0.20Sb1.00Li1.00,371,119.33,42345,0.8948,0.000602978,0.250005379,https://doi.org/10.1021/acsami.1c01818
Cu1.00I0.00Bi2.00Te3.00,371,-165.74,109029,1.3556,0.002994999,0.819670013,https://doi.org/10.1021/acsami.0c09529
Cu2.00Se1.00,372,99.84,79524,0.708,0.000792697,0.416501954,https://doi.org/10.1021/acs.chemmater.7b01687
Cu2.00Se0.88S0.12,372,142.3,36100,0.29,0.000730999,0.937695742,https://doi.org/10.1021/acs.chemmater.7b01687
Cu2.00Se0.92S0.08,372,125.66,59220,0.396,0.00093511,0.878436287,https://doi.org/10.1021/acs.chemmater.7b01687
Cu2.00Se0.94S0.06,372,125,63740,0.468,0.000995938,0.791642628,https://doi.org/10.1021/acs.chemmater.7b01687
Cu2.00Se0.96S0.04,372,117.76,66800,0.532,0.000926343,0.647743948,https://doi.org/10.1021/acs.chemmater.7b01687
Cu2.00Se0.98S0.02,372,113,72000,0.574,0.000919368,0.595827345,https://doi.org/10.1021/acs.chemmater.7b01687
Ba1.00Bi1.00Te3.00,372,-151.8,10350,0.452,0.000238498,0.196285581,https://doi.org/10.1021/acs.chemmater.7b04123
Cu2.20Sn0.80Sb0.20Se3.20,372,56,191450,3.27,0.000600387,0.068300929,https://doi.org/10.1021/acsaem.1c01155
Cu2.50Sn0.50Sb0.50Se3.50,372,34.29,455113,5.0263,0.000535124,0.039604884,https://doi.org/10.1021/acsaem.1c01155
Cu2.80Sn0.20Sb0.80Se3.80,372,44.57,370149,5.24,0.000735295,0.05220036,https://doi.org/10.1021/acsaem.1c01155
Cu2.00Sn1.00Se3.00,372,192.57,1735,2.2027,6.43E-05,0.010865866,https://doi.org/10.1021/acsaem.1c01155
Cu3.00Sb1.00Se4.00,372,391.3,3590,2.35,0.000549685,0.0971,https://doi.org/10.1021/acsaem.1c01155
In4.00Se2.32Cl0.03,373,-228,27400,1.087,0.001424362,0.493,10.1002/adma.201004739
Yb13.00Ca1.00Mn1.00Sb11.00,373,61.94,43100,0.789,0.000165356,0.0687,10.1007/s11664-010-1149-9
Cu3.00Sb0.85Ge0.15S4.00,373,137.78,45664,1.7935,0.000866855,0.180282579,10.1021/acs.jpcc.6b09379
Cu3.00Sb0.93Ge0.07S4.00,373,197.7,18700,1.56,0.000730895,0.17475885,10.1021/acs.jpcc.6b09379
Cu3.00Sb0.95Ge0.05S4.00,373,234,9200,1.538,0.000503755,0.1221721,10.1021/acs.jpcc.6b09379
Cu3.00Sb0.97Ge0.03S4.00,373,308,5210,1.5057,0.000494241,0.122436114,10.1021/acs.jpcc.6b09379
Cu3.00Sb0.99Ge0.01S4.00,373,381.2,1922,1.48,0.000279292,0.070389241,10.1021/acs.jpcc.6b09379
Cu3.00Sb0.90Ge0.10S4.00,373,172.2,25800,1.703,0.000765043,0.167563794,10.1021/acs.jpcc.6b09379
Cu3.00Sb1.00S4.00,373,641.76,200.8,1.414,8.27E-05,0.021815663,10.1021/acs.jpcc.6b09379
In4.00Pb0.01Sn0.03Se2.90Cl0.02,373,-224,8330,0.846,0.000417966,0.186,10.1039/c4dt03432e
In4.00Pb0.01Sn0.03Se2.90Cl0.06,373,219,3820,0.844,0.000183211,0.080968851,10.1039/c4dt03432e
Zn0.85Cd0.15Sc0.02O1.03,373,-59,19800,6.583,6.89E-05,0.003905298,10.1039/c6ta03126a
Zn0.88Cd0.12Sc0.02O1.03,373,-83,41000,5.67,0.000282449,0.01858086,10.1039/c6ta03126a
Zn0.95Cd0.05Sc0.02O1.03,373,-71,17600,9.75,8.87E-05,0.00339417,10.1039/c6ta03126a
Zn0.90Cd0.10Sc0.02O1.03,373,-80,55500,6.5,0.0003552,0.020383015,10.1039/c6ta03126a
Zn0.90Cd0.10Sc0.03O1.04,373,-83.2,52600,6.6,0.00036411,0.020577722,10.1039/c6ta03126a
Zn0.90Cd0.10Sc0.04O1.06,373,-93,44000,6.8,0.000380556,0.020874616,10.1039/c6ta03126a
Zn1.00Sc0.02O1.03,373,-181.5,3200,37.1,0.000105415,0.001059835,10.1039/c6ta03126a
Sn0.80Ge0.20Mn0.15Te1.00,373,67.7,179000,1.975,0.000820409,0.1565,10.1039/c7cp04931e
Sn0.80Ge0.20Mn0.12Te1.00,373,60.9,204200,2.486,0.000757339,0.113631314,10.1039/c7cp04931e
Sn0.80Ge0.20Mn0.20Te1.00,373,73.3,142000,1.984,0.00076295,0.142,10.1039/c7cp04931e
Sn0.80Ge0.20Mn0.09Te1.00,373,57.4,220164,2.52756,0.000725388,0.107047727,10.1039/c7cp04931e
Sn0.80Ge0.20Mn0.06Te1.00,373,54.6,252358,2.875,0.00075232,0.097605288,10.1039/c7cp04931e
Sn0.80Ge0.20Te1.00,373,44.7,410900,4.84,0.000821015,0.0645,10.1039/c7cp04931e
Sn1.00Te1.00,373,35.5,630900,6,0.000795092,0.0484,10.1039/c7cp04931e
Cu2.82Ag0.18Sb1.00Se4.00,373,370,8522,1.24,0.001166662,0.36,10.1039/c9ta05115e
Cu2.88Ag0.12Sb1.00Se4.00,373,369,10316,1.49,0.001404637,0.351630574,10.1039/c9ta05115e
Cu2.94Ag0.06Sb1.00Se4.00,373,427,5288,1.65,0.000964156,0.217957634,10.1039/c9ta05115e
Cu3.00Sb1.00Se4.00,373,483,2367,1.9,0.000552195,0.10840461,10.1039/c9ta05115e
Bi0.92Ag0.08Cu1.00Se1.00O1.00,373,194,2190,0.525,8.24E-05,0.058559465,http://dx.doi.org/10.1016/j.jeurceramsoc.2014.09.015
Bi0.94Ag0.06Cu1.00Se1.00O1.00,373,235.5,1576,0.55,8.74E-05,0.059276722,http://dx.doi.org/10.1016/j.jeurceramsoc.2014.09.015
Bi0.96Ag0.04Cu1.00Se1.00O1.00,373,249,1565,0.57,9.70E-05,0.063496094,http://dx.doi.org/10.1016/j.jeurceramsoc.2014.09.015
Bi0.90Ag0.10Cu1.00Se1.00O1.00,373,178.5,2351,0.555,7.49E-05,0.050343675,http://dx.doi.org/10.1016/j.jeurceramsoc.2014.09.015
Bi1.00Cu1.00Se1.00O1.00,373,463.6,497,0.722,0.000106818,0.055184216,http://dx.doi.org/10.1016/j.jeurceramsoc.2014.09.015
Bi2.00Te3.00,373,-143.4,107500,0.9,0.002210583,0.916163719,http://dx.doi.org/10.1016/j.pnsc.2013.06.007
Ce0.20Bi1.80Te3.00,373,-141.2,84083,0.577,0.0016764,1.083703836,http://dx.doi.org/10.1016/j.pnsc.2013.06.007
Sm0.20Bi1.80Te3.00,373,-142.6,74600,0.734,0.001516973,0.766,http://dx.doi.org/10.1016/j.pnsc.2013.06.007
Y0.20Bi1.80Te3.00,373,-138.4,84900,0.631,0.001626222,0.963,http://dx.doi.org/10.1016/j.pnsc.2013.06.007
Bi2.00Te1.95Se1.05,373,-176.4,47800,0.96,0.001487391,0.573,https://doi.org/10.1007/s11664-020-08258-9
Bi2.00Te2.01Se0.99,373,-158.4,54400,1.014,0.001364926,0.4904,https://doi.org/10.1007/s11664-020-08258-9
Bi2.00Te2.10Se0.90,373,-158.8,60000,1.114,0.001513046,0.535,https://doi.org/10.1007/s11664-020-08258-9
Bi2.00Te2.55Se0.45,373,-145.27,79275,1.173,0.00167297,0.53,https://doi.org/10.1007/s11664-020-08258-9
Bi2.00Te2.70Se0.30,373,-140.4,95400,1.305,0.00188054,0.54,https://doi.org/10.1007/s11664-020-08258-9
Mg2.98Na0.03Sb2.00,373,89,39000,1.84,0.000308919,0.062623254,https://doi.org/10.1016/j.actamat.2015.04.023
Mg2.99Na0.01Sb2.00,373,107.8,26523,1.563,0.00030822,0.073554631,https://doi.org/10.1016/j.actamat.2015.04.023
Zn0.95In0.05Sb3.00,373,155.8,24528,0.843,0.000595384,0.263437928,https://doi.org/10.1016/j.intermet.2004.02.030
Zn0.98In0.02Sb3.00,373,136.2,34540,0.824,0.000640732,0.290040182,https://doi.org/10.1016/j.intermet.2004.02.030
Zn0.90In0.14Sb3.00,373,175,13095,0.835,0.000401034,0.179144697,https://doi.org/10.1016/j.intermet.2004.02.030
Ag0.40Sb1.10Pb19.60Te18.80,373,20.8,18406,1.663,7.96E-06,0.001786087,https://doi.org/10.1016/j.jallcom.2004.08.049
Ag0.50Sb1.10Pb19.60Te18.80,373,4.8,31795,1.725,7.33E-07,0.000158402,https://doi.org/10.1016/j.jallcom.2004.08.049
Ag0.80Sb0.80Pb18.30Te20.00,373,-336,4080,0.917,0.000460616,0.187360576,https://doi.org/10.1016/j.jallcom.2004.08.049
Ag0.90Sb0.90Pb18.30Te19.90,373,-372.8,1872,1.038,0.00026017,0.093490855,https://doi.org/10.1016/j.jallcom.2004.08.049
Ag1.10Sb0.80Pb15.50Te22.60,373,320,5000,1.11,0.000512,0.187,https://doi.org/10.1016/j.jallcom.2004.08.049
Ag1.20Sb0.80Pb14.90Te22.70,373,404.8,2315,1.09,0.000379343,0.129811849,https://doi.org/10.1016/j.jallcom.2004.08.049
Ag1.30Sb0.90Pb15.70Te22.00,373,448.78,940.25,1.044,0.000181798,0.04,https://doi.org/10.1016/j.jallcom.2004.08.049
Sn0.98In0.02Se1.00,373,391,35,0.8,5.35E-06,0.002494827,https://doi.org/10.1016/j.jallcom.2016.01.190
Sn1.00Se1.00,373,379,234,0.77,3.36E-05,0.016,https://doi.org/10.1016/j.jallcom.2016.01.190
Sn0.87Mn0.10Bi0.03Te1.00,373,64,240000,4.075,0.00098304,0.08998133,https://doi.org/10.1016/j.jmst.2020.12.063
Sn0.91Mn0.08Bi0.01Te1.00,373,59.5,297000,4.226,0.001051454,0.092804646,https://doi.org/10.1016/j.jmst.2020.12.063
Sn1.00Te1.00,373,32.6,497600,9.84,0.000528829,0.020046073,https://doi.org/10.1016/j.jmst.2020.12.063
Zn0.96Al0.04O1.00,373,-65,63760,5.83,0.000269386,0.017235159,https://doi.org/10.1016/j.jpcs.2010.06.006
Zn0.97Al0.03O1.00,373,-68,49000,7.4,0.000226576,0.011420655,https://doi.org/10.1016/j.jpcs.2010.06.006
La0.10Co4.00Sb12.00,373,70.74,25688,3.686,0.000128547,0.013008101,https://doi.org/10.1016/j.matchemphys.2005.07.068
La0.30Co4.00Sb12.00,373,67,25735,3.85,0.000115524,0.011192365,https://doi.org/10.1016/j.matchemphys.2005.07.068
La0.50Co4.00Sb12.00,373,58.5,35355,2.186,0.000120994,0.020645302,https://doi.org/10.1016/j.matchemphys.2005.07.068
La0.70Co4.00Sb12.00,373,-177.66,33300,3.157,0.00105105,0.124181757,https://doi.org/10.1016/j.matchemphys.2005.07.068
La1.25Co4.00Sb12.00,373,-64,245000,5.2647,0.00100352,0.071098631,https://doi.org/10.1016/j.matchemphys.2005.07.068
La2.00Co4.00Sb12.00,373,-15.4,358974,2.52,8.51E-05,0.012601224,https://doi.org/10.1016/j.matchemphys.2005.07.068
La1.00Co4.00Sb12.00,373,-89,168675,3.07,0.001336075,0.162330897,https://doi.org/10.1016/j.matchemphys.2005.07.068
Cu3.00Sb1.00In0.00Se4.00,373,250.3,6182,2,0.000387303,0.072231983,https://doi.org/10.1016/j.matdes.2016.03.001
Cu3.00Sb1.00In0.00Se4.00,373,271,5900,1.95,0.000443,0.082882876,https://doi.org/10.1016/j.matdes.2016.03.001
Cu3.00Sb1.00In0.00Se4.00,373,284.5,4444,1.92,0.000359698,0.069878922,https://doi.org/10.1016/j.matdes.2016.03.001
Co1.00Sb3.00,373,-218,3125,6.1,0.000148512,0.009081174,https://doi.org/10.1016/S0925-8388(00)01275-5
Yb13.43Ce0.44Mn1.07Sb11.07,373,64.69,41057,0.7312,0.000171815,0.087646416,https://doi.org/10.1021/acs.chemmater.0c03043
Yb13.44Ce0.40Mn1.09Sb11.07,373,72.1,34590,0.763,0.000179813,0.087903342,https://doi.org/10.1021/acs.chemmater.0c03043
Yb13.60Ce0.36Mn0.99Sb11.05,373,59.37,46330,0.8766,0.000163304,0.069487032,https://doi.org/10.1021/acs.chemmater.0c03043
Sn0.96Pb0.01Cd0.03Se1.00,373,336,3317,0.7826,0.000374476,0.178481421,https://doi.org/10.1021/acs.chemmater.0c03657
Sn0.96Pb0.01Cd0.04Se1.00,373,331,3651,0.6708,0.000400007,0.222425,https://doi.org/10.1021/acs.chemmater.0c03657
Sn0.97Pb0.01Cd0.01Se1.00,373,344.37,2416,0.964,0.000286515,0.110861142,https://doi.org/10.1021/acs.chemmater.0c03657
Sn0.97Pb0.01Cd0.03Se1.00,373,337,2889,0.877,0.000328101,0.13954574,https://doi.org/10.1021/acs.chemmater.0c03657
Sn1.00Se1.00,373,349,2047,1.146,0.000249327,0.08115082,https://doi.org/10.1021/acs.chemmater.0c03657
Ca10.00Mn1.00Sb9.00,373,10.82,7.38,0.727,8.64E-10,4.43E-07,https://doi.org/10.1021/acs.chemmater.0c04940
Ca10.00Zn1.00Sb9.00,373,19.4,37.35,0.6428,1.41E-08,8.16E-06,https://doi.org/10.1021/acs.chemmater.0c04940
Ge0.55Pb0.45Te1.00,373,63.35,63830,2.134,0.000256164,0.044774681,https://doi.org/10.1021/acs.chemmater.6b02772
Ba1.00Bi1.00Te2.95Se0.05,373,-165.7,7322,0.4315,0.000201036,0.173781193,https://doi.org/10.1021/acs.chemmater.7b04123
Ba1.00Bi1.00Te2.90Se0.10,373,-171,4499,0.409,0.000131555,0.119975823,https://doi.org/10.1021/acs.chemmater.7b04123
Ge12.00Sb2.00Te15.00,373,175.7,35960,1.49,0.001110103,0.277898223,https://doi.org/10.1021/acs.chemmater.8b03609
Ge4.00Sb2.00Te7.00,373,51.33,200000,2.0938,0.000526954,0.093874181,https://doi.org/10.1021/acs.chemmater.8b03609
Li2.00Ge11.00Sb2.00Te15.00,373,100,179400,1.8482,0.001794,0.362061465,https://doi.org/10.1021/acs.chemmater.8b03609
Li2.00Ge3.00Sb2.00Te7.00,373,270,16670,0.803,0.001215243,0.56449021,https://doi.org/10.1021/acs.chemmater.8b03609
Li1.00Ge11.50Sb2.00Te15.00,373,205.4,41580,1.352,0.001754225,0.483968955,https://doi.org/10.1021/acs.chemmater.8b03609