Formula,temperature(K),seebeck_coefficient(μV/K),electrical_conductivity(S/m),thermal_conductivity(W/mK),power_factor(W/mK2),ZT,reference
Cu3.00Sb0.90Ge0.10S4.00,573,227.3,17700,1.025,0.000914476,0.511214183,10.1021/acs.jpcc.6b09379
Cu3.00Sb1.00S4.00,573,584.6,378,0.779,0.000129184,0.095022529,10.1021/acs.jpcc.6b09379
In4.00Pb0.01Sn0.03Se2.90Cl0.06,573,-246.8,10100,0.61448,0.000613,0.573665265,10.1039/c4dt03432e
Zn0.85Cd0.15Sc0.02O1.03,573,-79,19800,5,0.000123572,0.014161328,10.1039/c6ta03126a
Zn0.88Cd0.12Sc0.02O1.03,573,-101,35570,4.25,0.00036285,0.04892066,10.1039/c6ta03126a
Zn0.95Cd0.05Sc0.02O1.03,573,-100,16800,6.75,0.000168,0.014261333,10.1039/c6ta03126a
Zn0.90Cd0.10Sc0.01O1.01,573,-101,49000,4.94,0.000499849,0.057978437,10.1039/c6ta03126a
Zn0.90Cd0.10Sc0.02O1.03,573,-99,47570,5,0.000466234,0.053430367,10.1039/c6ta03126a
Zn0.90Cd0.10Sc0.03O1.04,573,-92.7,44000,4.93,0.000378105,0.04394605,10.1039/c6ta03126a
Zn0.90Cd0.10Sc0.04O1.06,573,-110.2,37604,4.9545,0.000456664,0.05281436,10.1039/c6ta03126a
Zn1.00Sc0.02O1.03,573,-214.7,4428,19.583,0.000204113,0.005972375,10.1039/c6ta03126a
Sn0.80Ge0.20Mn0.15Te1.00,573,100,135100,1.638,0.001351,0.472602564,10.1039/c7cp04931e
Sn0.80Ge0.20Mn0.12Te1.00,573,95.4,150750,1.95,0.001372,0.403156885,10.1039/c7cp04931e
Sn0.80Ge0.20Mn0.20Te1.00,573,111,112869,1.677,0.001390659,0.4574,10.1039/c7cp04931e
Sn0.80Ge0.20Mn0.09Te1.00,573,94,155977,2.11,0.001378213,0.374272947,10.1039/c7cp04931e
Sn0.80Ge0.20Mn0.06Te1.00,573,86.7,173100,2.46,0.001301174,0.3016,10.1039/c7cp04931e
Sn0.80Ge0.20Mn0.03Te1.00,573,82,203400,2.984,0.001367662,0.25968,10.1039/c7cp04931e
Sn0.80Ge0.20Te1.00,573,67.6,256000,4.367,0.001169859,0.15349873,10.1039/c7cp04931e
Sn1.00Te1.00,573,56,335400,5.2,0.001051814,0.1145,10.1039/c7cp04931e
Cu2.82Ag0.18Sb1.00Se4.00,573,378,7396,0.8,0.00105677,0.75,10.1039/c9ta05115e
Cu2.88Ag0.12Sb1.00Se4.00,573,361,7597,0.9,0.000990049,0.61,10.1039/c9ta05115e
Cu2.94Ag0.06Sb1.00Se4.00,573,368,5944,1,0.00080496,0.47,10.1039/c9ta05115e
Cu3.00Sb1.00Se4.00,573,356,5890,1.12,0.000746475,0.381901962,10.1039/c9ta05115e
Sn1.00S1.00,573,305.2,19318,1.466,0.001799415,0.6935,10.1126/science.aax5123
Sn1.00S0.88Se0.12,573,250,23000,1.27,0.00156,0.70384252,10.1126/science.aax5123
Sn1.00S0.91Se0.09,573,293.3,31650,1.217,0.00271,1.2849,10.1126/science.aax5123
Sn1.00S0.94Se0.06,573,305,20600,1.33,0.001916315,0.825600372,10.1126/science.aax5123
Sn1.00S0.97Se0.03,573,300,20200,1.49,0.0017623,0.6865,10.1126/science.aax5123
Bi0.92Ag0.08Cu1.00Se1.00O1.00,573,293.4,2020,0.425,0.000173889,0.234443006,http://dx.doi.org/10.1016/j.jeurceramsoc.2014.09.015
Bi0.94Ag0.06Cu1.00Se1.00O1.00,573,296.7,1649,0.48,0.000145163,0.173288257,http://dx.doi.org/10.1016/j.jeurceramsoc.2014.09.015
Bi0.96Ag0.04Cu1.00Se1.00O1.00,573,283.47,1781,0.513,0.000143113,0.15985101,http://dx.doi.org/10.1016/j.jeurceramsoc.2014.09.015
Bi0.90Ag0.10Cu1.00Se1.00O1.00,573,288.4,1934,0.504,0.00016086,0.182882044,http://dx.doi.org/10.1016/j.jeurceramsoc.2014.09.015
Bi1.00Cu1.00Se1.00O1.00,573,390,1218,0.541,0.000185258,0.196215748,http://dx.doi.org/10.1016/j.jeurceramsoc.2014.09.015
Yb10.00La1.00Cd1.00Sb9.00,573,48.55,27725,0.85648,6.54E-05,0.043720731,https://doi.org/10.1002/asia.201200827
Bi2.00Te1.95Se1.05,573,-185,33000,0.9322,0.00113,0.706,https://doi.org/10.1007/s11664-020-08258-9
Bi2.00Te2.10Se0.90,573,-176.4,40000,1.081,0.00124,0.649,https://doi.org/10.1007/s11664-020-08258-9
Bi2.00Te2.55Se0.45,573,-149,52029,1.227,0.001155096,0.56,https://doi.org/10.1007/s11664-020-08258-9
Bi2.00Te2.70Se0.30,573,-145.2,60700,1.4196,0.001279741,0.506,https://doi.org/10.1007/s11664-020-08258-9
Mg2.98Na0.03Sb2.00,573,126,37200,1.345,0.000590587,0.25160332,https://doi.org/10.1016/j.actamat.2015.04.023
Mg2.99Na0.01Sb2.00,573,152,28300,1.11,0.000653843,0.337524463,https://doi.org/10.1016/j.actamat.2015.04.023
Ag0.40Sb1.10Pb19.60Te18.80,573,-120,18400,1.34,0.00026496,0.11330006,https://doi.org/10.1016/j.jallcom.2004.08.049
Ag0.50Sb1.10Pb19.60Te18.80,573,-100,24288,1.422,0.00024288,0.097869367,https://doi.org/10.1016/j.jallcom.2004.08.049
Ag0.60Sb0.90Pb19.50Te19.10,573,-190.4,13350,1.654,0.000483966,0.16,https://doi.org/10.1016/j.jallcom.2004.08.049
Ag0.80Sb0.80Pb18.30Te20.00,573,-273.6,12228,0.7346,0.000915351,0.71398866,https://doi.org/10.1016/j.jallcom.2004.08.049
Ag1.10Sb0.80Pb15.50Te22.60,573,324.8,3050,0.936,0.00032176,0.196974793,https://doi.org/10.1016/j.jallcom.2004.08.049
Ag1.20Sb0.80Pb14.90Te22.70,573,289.6,2112,0.9547,0.00017713,0.106311129,https://doi.org/10.1016/j.jallcom.2004.08.049
Ag1.30Sb0.90Pb15.70Te22.00,573,-91.2,1250,1.0284,1.04E-05,0.005792849,https://doi.org/10.1016/j.jallcom.2004.08.049
Sn0.98In0.02Se1.00,573,502,90,0.62,2.27E-05,0.019,https://doi.org/10.1016/j.jallcom.2016.01.190
Sn1.00Se1.00,573,384,328,0.62,4.84E-05,0.044699146,https://doi.org/10.1016/j.jallcom.2016.01.190
Sn1.00Te1.00,573,54,284000,7.666,0.000828144,0.061900145,https://doi.org/10.1016/j.jmst.2020.12.063
Zn0.96Al0.04O1.00,573,-81,50500,3.7,0.00033133,0.051311453,https://doi.org/10.1016/j.jpcs.2010.06.006
Zn0.97Al0.03O1.00,573,-85,40800,5.96,0.00029478,0.028340426,https://doi.org/10.1016/j.jpcs.2010.06.006
La0.10Co4.00Sb12.00,573,100,27600,3.657,0.000276,0.043245283,https://doi.org/10.1016/j.matchemphys.2005.07.068
La0.30Co4.00Sb12.00,573,93,26217,3.333,0.000226751,0.038982366,https://doi.org/10.1016/j.matchemphys.2005.07.068
La0.50Co4.00Sb12.00,573,86.7,30700,2.31,0.000230769,0.057242582,https://doi.org/10.1016/j.matchemphys.2005.07.068
La0.70Co4.00Sb12.00,573,-201,35088,4.46,0.00141759,0.182125389,https://doi.org/10.1016/j.matchemphys.2005.07.068
Cu3.00Sb1.00In0.00Se4.00,573,277,9107,1.133,0.000698771,0.353394338,https://doi.org/10.1016/j.matdes.2016.03.001
Cu3.00Sb1.00In0.00Se4.00,573,288.4,8410,1.115,0.000699498,0.364,https://doi.org/10.1016/j.matdes.2016.03.001
Cu3.00Sb1.00In0.00Se4.00,573,310.7,7300,1.12,0.000704702,0.360530463,https://doi.org/10.1016/j.matdes.2016.03.001
Cu3.00Sb1.00Se4.00,573,320,4700,1.204,0.00048128,0.229047708,https://doi.org/10.1016/j.matdes.2016.03.001
Co1.00Sb3.00,573,117,6250,4.5,8.56E-05,0.010894163,https://doi.org/10.1016/S0925-8388(00)01275-5
Yb13.43Ce0.44Mn1.07Sb11.07,573,124.44,27520,0.716,0.000426156,0.341043702,https://doi.org/10.1021/acs.chemmater.0c03043
Yb13.44Ce0.40Mn1.09Sb11.07,573,130.5,23502,0.739,0.000400245,0.310338766,https://doi.org/10.1021/acs.chemmater.0c03043
Yb13.49Ce0.39Mn1.05Sb11.08,573,125.4,27151,0.7584,0.000426954,0.322579824,https://doi.org/10.1021/acs.chemmater.0c03043
Yb13.60Ce0.36Mn0.99Sb11.05,573,113.97,31077,0.8623,0.000403664,0.268235602,https://doi.org/10.1021/acs.chemmater.0c03043
Sn0.96Pb0.01Cd0.03Se1.00,573,392.7,2460,0.4969,0.000379365,0.437464217,https://doi.org/10.1021/acs.chemmater.0c03657
Sn0.96Pb0.01Cd0.04Se1.00,573,390.67,2698,0.4149,0.000411777,0.568686944,https://doi.org/10.1021/acs.chemmater.0c03657
Sn0.97Pb0.01Cd0.01Se1.00,573,400,1746,0.6236,0.00027936,0.256692239,https://doi.org/10.1021/acs.chemmater.0c03657
Sn0.97Pb0.01Cd0.03Se1.00,573,395.67,2079,0.564,0.000325477,0.33067111,https://doi.org/10.1021/acs.chemmater.0c03657
Sn1.00Se1.00,573,411.33,1556,0.728,0.000263263,0.207211382,https://doi.org/10.1021/acs.chemmater.0c03657
Ca10.00Ga1.00Sb9.00,573,64.93,500,0.6031,2.11E-06,0.002002747,https://doi.org/10.1021/acs.chemmater.0c04940
Ca10.00In1.00Sb9.00,573,178.57,3577,0.72,0.000114061,0.090773287,https://doi.org/10.1021/acs.chemmater.0c04940
Ca10.00Mn1.00Sb9.00,573,75,17.34,0.6195,9.75E-08,9.02E-05,https://doi.org/10.1021/acs.chemmater.0c04940
Ca10.00Zn1.00Sb9.00,573,61.2,41.94,0.581,1.57E-07,0.000154921,https://doi.org/10.1021/acs.chemmater.0c04940
Ge12.00Sb2.00Te15.00,573,236,42150,1.504,0.002347586,0.9,https://doi.org/10.1021/acs.chemmater.8b03609
Ge4.00Sb2.00Te7.00,573,95.1,101110,1.8214,0.00091444,0.287676532,https://doi.org/10.1021/acs.chemmater.8b03609
Li2.00Ge11.00Sb2.00Te15.00,573,170,115000,1.848,0.0033235,1.036,https://doi.org/10.1021/acs.chemmater.8b03609
Li2.00Ge3.00Sb2.00Te7.00,573,247.4,26944,0.7815,0.001649155,1.209169266,https://doi.org/10.1021/acs.chemmater.8b03609
Li1.00Ge11.50Sb2.00Te15.00,573,249.5,46070,1.366,0.002867869,1.202993373,https://doi.org/10.1021/acs.chemmater.8b03609
Li1.00Ge3.50Sb2.00Te7.00,573,252,35550,0.946,0.002257567,1.28,https://doi.org/10.1021/acs.chemmater.8b03609
Nd2.78Te4.00,573,-106,61350,1.234,0.0007,0.31,https://doi.org/10.1021/acs.chemmater.9b00964
Nd2.84Te4.00,573,-74.3,92600,1.837,0.000511197,0.159453509,https://doi.org/10.1021/acs.chemmater.9b00964
Nd2.86Te4.00,573,-68.8,114085,2,0.00052,0.151,https://doi.org/10.1021/acs.chemmater.9b00964
Nd2.92Te4.00,573,-49.4,163640,2.743,0.000399341,0.083420384,https://doi.org/10.1021/acs.chemmater.9b00964
Nd2.90Te4.00,573,-56.9,138400,2.471,0.000409,0.094,https://doi.org/10.1021/acs.chemmater.9b00964
Nd3.00Te4.00,573,-43,245500,3.28,0.00045393,0.075,https://doi.org/10.1021/acs.chemmater.9b00964
Cu2.00Zn1.00Sn0.93Ag0.07Se4.00,573,88.17,56985,2.3314,0.000442998,0.108877982,https://doi.org/10.1021/acs.inorgchem.1c00079
Cu2.00Zn1.00Sn0.95Ag0.05Se4.00,573,65.9,164800,2.56,0.000715695,0.16019269,https://doi.org/10.1021/acs.inorgchem.1c00079
Cu2.00Zn1.00Sn0.98Ag0.02Se4.00,573,113.52,44034,3.1754,0.000567457,0.102397437,https://doi.org/10.1021/acs.inorgchem.1c00079
Cu2.00Zn1.00Sn1.00Se4.00,573,165.43,15060,3.298,0.000412148,0.07160733,https://doi.org/10.1021/acs.inorgchem.1c00079
Cu5.00Sn1.00Sb1.00Se6.30,573,65.17,124138,2.2845,0.00052723,0.132240245,https://doi.org/10.1021/acsaem.1c01155
Cu5.00Sn1.00Sb1.00Se6.58,573,55.86,204310,3.3846,0.000637517,0.10792915,https://doi.org/10.1021/acsaem.1c01155
Cu5.00Sn1.00Sb1.00Se6.79,573,56.44,260345,3.819,0.000829322,0.124430892,https://doi.org/10.1021/acsaem.1c01155
Cu5.00Sn1.00Sb1.00Se7.00,573,52.53,303478,4.2845,0.000837417,0.111994447,https://doi.org/10.1021/acsaem.1c01155
Al0.01Sb0.10Ge0.90Te1.00,573,223,54699,1.4244,0.002720127,1.094237942,https://doi.org/10.1021/acsami.1c12282
Al0.01Sb0.10Ge0.89Te1.00,573,214.6,52450,1.428,0.002415488,1,https://doi.org/10.1021/acsami.1c12282
Al0.01Ge0.99Te1.00,573,94.2,287500,4.263,0.002551172,0.342909048,https://doi.org/10.1021/acsami.1c12282
Al0.01Sb0.10Ge0.89Te1.00,573,241.13,46104,1.3795,0.002680656,1.0669,https://doi.org/10.1021/acsami.1c12282
Al0.02Ge0.98Te1.00,573,93.75,287500,4.333,0.002526855,0.334153747,https://doi.org/10.1021/acsami.1c12282
Al0.03Ge0.97Te1.00,573,88.39,287500,4.313,0.002246178,0.298414059,https://doi.org/10.1021/acsami.1c12282
Ge1.00Te1.00,573,95.89,294600,4.131,0.002708815,0.375732539,https://doi.org/10.1021/acsami.1c12282
Sb0.05Ge0.95Te1.00,573,156.3,136488,2.382,0.00333436,0.802094043,https://doi.org/10.1021/acsami.1c12282
Sb0.15Ge0.85Te1.00,573,237.8,28349,1.309,0.001603103,0.701740303,https://doi.org/10.1021/acsami.1c12282
Sb0.10Ge0.90Te1.00,573,221.4,55046,1.455,0.002698243,1.039,https://doi.org/10.1021/acsami.1c12282
Bi0.42Sb1.58Te3.00,573,155.2,26064,1.551,0.000627805,0.231935552,https://doi.org/10.1021/acsami.1c13372
Ag8.00Sn0.40Ga0.60Se6.00,573,-323.83,660,0.283,6.92E-05,0.12,https://doi.org/10.1021/acsami.1c17548
Sn0.93Pb0.06Zn0.01Se1.00,573,550,315,0.5163,9.53E-05,0.105751961,https://doi.org/10.1021/acsami.1c20549
Sn0.96Pb0.03Zn0.01Se1.00,573,546.2,566,0.5649,0.000168857,0.171278508,https://doi.org/10.1021/acsami.1c20549
Sn0.97Pb0.02Zn0.01Se1.00,573,540.43,724,0.8464,0.000211455,0.143151674,https://doi.org/10.1021/acsami.1c20549
Sn0.98Pb0.01Zn0.01Se1.00,573,533,872,0.768,0.000247726,0.184826528,https://doi.org/10.1021/acsami.1c20549
Sn0.90Pb0.09Zn0.01Se1.00,573,605.36,209,0.6405,7.66E-05,0.068518716,https://doi.org/10.1021/acsami.1c20549
Sn1.00Se1.00,573,558.21,337,1.048,0.000119,0.065063931,https://doi.org/10.1021/acsami.1c20549
Bi2.00Si2.00Te6.00,573,182,8520,0.709,0.000282216,0.228081866,https://doi.org/10.1021/acsami.1c23351
Sb2.00Si2.00Te6.00,573,191.9,19404,0.6569,0.000714564,0.623299209,https://doi.org/10.1021/acsami.1c23351
Cu2.00Zn0.20Fe0.80Sn1.00Se4.00,573,245.38,3356,0.9331,0.000202069,0.124087121,https://doi.org/10.1021/ic402455x
Cu2.00Zn0.40Fe0.60Sn1.00Se4.00,573,220.81,5458,1.0591,0.000266116,0.143975522,https://doi.org/10.1021/ic402455x
Cu2.00Zn0.60Fe0.40Sn1.00Se4.00,573,322.25,980.18,1.2835,0.000101787,0.045441268,https://doi.org/10.1021/ic402455x
Cu2.00Zn0.80Fe0.20Sn1.00Se4.00,573,365.32,725.89,1.0394,9.69E-05,0.053405947,https://doi.org/10.1021/ic402455x
Ca3.00Co2.00O6.00,573,174,630,6,1.91E-05,0.001821556,https://doi.org/10.1063/1.1622115
Tl4.00Pb1.00Te3.00,573,166,14500,0.545,0.000409,0.426,https://doi.org/10.1063/1.2181427
Zr1.00Ni1.00Sn1.00,573,-152.1,58897,3.573,0.001362547,0.218510951,https://doi.org/10.1021/acsami.1c05639
Ag2.00Se1.00,573,-103.6,114210,3.08,0.001225811,0.221,https://doi.org/10.1021/acsami.1c08410
Sn1.00Se1.00,573,286.71,5280,0.8951,0.00043403,0.277845053,https://doi.org/10.1021/acsami.1c10081
Sn1.00Se0.90S0.10,573,305.66,4189,0.8049,0.0003595,0.2562,https://doi.org/10.1021/acsami.1c10081
Sn1.00Se0.80S0.20,573,319.81,2742,0.7852,0.000280447,0.20465665,https://doi.org/10.1021/acsami.1c10081
Sn1.00Se1.00,573,425.36,193.55,0.5052,3.50E-05,0.037,https://doi.org/10.1021/acsami.1c09208
Sn1.00Se1.00,573,428.26,161.29,0.5037,2.96E-05,0.033651555,https://doi.org/10.1021/acsami.1c09208
Ca1.00Zn0.40Ag0.20Sb1.00,573,111.3,57522,1.01,0.000712565,0.404257005,https://doi.org/10.1021/acsami.1c01818
Ca1.00Zn1.40Ag0.20Sb1.00Li1.00,573,144.85,39394,0.9096,0.000826546,0.520680424,https://doi.org/10.1021/acsami.1c01818
Ca1.00Zn1.40Ag0.20Sb1.00Li1.00,573,167.9,26585,0.797,0.000749442,0.5388084,https://doi.org/10.1021/acsami.1c01818
Ca1.00Zn1.40Ag0.20Sb1.00Li1.00,573,170.15,26694,0.5541,0.000772819,0.799178947,https://doi.org/10.1021/acsami.1c01818
Ca1.00Zn1.40Ag0.20Sb1.00Li1.00,573,163.88,26694,0.717,0.000716912,0.5729293,https://doi.org/10.1021/acsami.1c01818
Mg2.00Zn0.96Sb2.00,573,207.89,9503,0.7344,0.000410703,0.32044233,https://doi.org/10.1021/acsami.0c09391
Mg2.00Zn0.98Sb2.00,573,241.5,7649,0.74,0.000446107,0.3512,https://doi.org/10.1021/acsami.0c09391
Mg2.00Zn1.00Sb2.00,573,100,3179,0.8656,3.18E-05,0.021043981,https://doi.org/10.1021/acsami.0c09391
Mg2.00Zn1.02Sb2.00,573,72.19,4172,0.8498,2.17E-05,0.014660078,https://doi.org/10.1021/acsami.0c09391
Mg2.00Zn1.04Sb2.00,573,95.39,3013,0.6944,2.74E-05,0.022622976,https://doi.org/10.1021/acsami.0c09391
Mg1.98Li0.02Zn0.98Sb2.00,573,129.63,55026,1.0118,0.000924653,0.523647377,https://doi.org/10.1021/acsami.0c09391
Mg1.98K0.02Zn0.98Sb2.00,573,233.86,8254,0.668,0.000451415,0.387217088,https://doi.org/10.1021/acsami.0c09391
Mg1.98Ag0.02Zn0.98Sb2.00,573,151.4,34921,0.9152,0.000800458,0.501160729,https://doi.org/10.1021/acsami.0c09391
Mg1.96Li0.04Zn0.98Sb2.00,573,90.48,84233,1.175,0.000689584,0.336282454,https://doi.org/10.1021/acsami.0c09391